 TITLE = "Time curves in points"
 VARIABLES = "TIME "  "PRESSURE1"  "PRESSURE2"  "PRESSURE_W"  "SATURATION1" SATURATION2  "n"  "Ki"  p_(1st_Invariant)  q_(2nd_Invariant)   Effective_Strain
 ZONE T="POINT=POINT3"
0.000000000000e+000 -4.910000000000e+001 9.995499172000e+004 1.000040917200e+005 7.510000000000e-001 2.490000000000e-001 0.000000000000e+000 0.000000000000e+000 -0.000000000000e+000 0.000000000000e+000  0.000000000000e+000
3.600000000000e+003 -9.409975544856e+001 9.995499172000e+004 1.000490914754e+005 7.510000000000e-001 2.490000000000e-001 0.000000000000e+000 0.000000000000e+000 -2.249987774262e+001 3.374981648638e+001  2.425136513992e-004
7.200000000000e+003 1.131415075592e+003 9.995499172000e+004 9.882357664441e+004 7.080336905002e-001 2.919663094998e-001 0.000000000000e+000 0.000000000000e+000 2.453079769248e+001 3.679619645594e+001  2.644038068690e-004
1.080000000000e+004 3.122273257507e+003 9.995499172000e+004 9.683271846249e+004 6.691374664486e-001 3.308625335514e-001 0.000000000000e+000 0.000000000000e+000 2.454356325096e+001 3.681534488419e+001  2.645414003654e-004
1.440000000000e+004 3.300075617630e+003 9.995499172000e+004 9.665491610237e+004 6.671995005592e-001 3.328004994408e-001 0.000000000000e+000 0.000000000000e+000 2.454403058677e+001 3.681604569656e+001  2.645464361429e-004
1.800000000000e+004 3.476676228507e+003 9.995499172000e+004 9.647831549149e+004 6.654084667310e-001 3.345915332690e-001 0.000000000000e+000 0.000000000000e+000 2.454444446270e+001 3.681666668615e+001  2.645508983436e-004
2.160000000000e+004 3.457154482208e+003 9.995499172000e+004 9.649783723779e+004 6.656003427832e-001 3.343996572168e-001 0.000000000000e+000 0.000000000000e+000 2.454440092295e+001 3.681660137543e+001  2.645504290450e-004
2.520000000000e+004 3.437504556359e+003 9.995499172000e+004 9.651748716364e+004 6.657949685892e-001 3.342050314108e-001 0.000000000000e+000 0.000000000000e+000 2.454435662082e+001 3.681653501150e+001  2.645499521784e-004
2.880000000000e+004 3.363989664914e+003 9.995499172000e+004 9.659100205509e+004 6.665366773692e-001 3.334633226308e-001 0.000000000000e+000 0.000000000000e+000 2.454418572878e+001 3.681627854149e+001  2.645481092802e-004
3.240000000000e+004 3.290439684981e+003 9.995499172000e+004 9.666455203502e+004 6.673009262762e-001 3.326990737238e-001 0.000000000000e+000 0.000000000000e+000 2.454400655867e+001 3.681600983956e+001  2.645461784879e-004
3.600000000000e+004 3.337447729347e+003 9.995499172000e+004 9.661754399065e+004 6.668098585600e-001 3.331901414400e-001 0.000000000000e+000 0.000000000000e+000 2.454412204223e+001 3.681618305119e+001  2.645474231223e-004
3.960000000000e+004 3.384534287935e+003 9.995499172000e+004 9.657045743207e+004 6.663272093888e-001 3.336727906112e-001 0.000000000000e+000 0.000000000000e+000 2.454423421516e+001 3.681635126530e+001  2.645486318464e-004
4.320000000000e+004 3.431620940798e+003 9.995499172000e+004 9.652337077920e+004 6.658535372778e-001 3.341464627222e-001 0.000000000000e+000 0.000000000000e+000 2.454434316996e+001 3.681651472289e+001  2.645498063920e-004
4.680000000000e+004 3.478707627114e+003 9.995499172000e+004 9.647628409289e+004 6.653885844829e-001 3.346114155171e-001 0.000000000000e+000 0.000000000000e+000 2.454444893978e+001 3.681667340850e+001  2.645509466479e-004
5.040000000000e+004 3.525794333979e+003 9.995499172000e+004 9.642919738602e+004 6.649321025012e-001 3.350678974988e-001 0.000000000000e+000 0.000000000000e+000 2.454455168422e+001 3.681682733147e+001  2.645520526812e-004
5.400000000000e+004 3.572880926420e+003 9.995499172000e+004 9.638211079358e+004 6.644838532795e-001 3.355161467205e-001 0.000000000000e+000 0.000000000000e+000 2.454465144806e+001 3.681697719829e+001  2.645531295685e-004
5.760000000000e+004 3.619967587664e+003 9.995499172000e+004 9.633502413234e+004 6.640436046143e-001 3.359563953857e-001 0.000000000000e+000 0.000000000000e+000 2.454474833980e+001 3.681712258423e+001  2.645541742580e-004
6.120000000000e+004 3.667054279047e+003 9.995499172000e+004 9.628793744095e+004 6.636111349370e-001 3.363888650630e-001 0.000000000000e+000 0.000000000000e+000 2.454484249143e+001 3.681726369069e+001  2.645551881966e-004
6.480000000000e+004 3.714140989719e+003 9.995499172000e+004 9.624085073028e+004 6.631862305194e-001 3.368137694806e-001 0.000000000000e+000 0.000000000000e+000 2.454493392892e+001 3.681740117451e+001  2.645561761042e-004
6.840000000000e+004 3.761227573037e+003 9.995499172000e+004 9.619376414696e+004 6.627686865762e-001 3.372313134238e-001 0.000000000000e+000 0.000000000000e+000 2.454502310497e+001 3.681753468830e+001  2.645571354848e-004
7.200000000000e+004 3.808314241488e+003 9.995499172000e+004 9.614667747851e+004 6.623583025473e-001 3.376416974527e-001 0.000000000000e+000 0.000000000000e+000 2.454510967418e+001 3.681766451672e+001  2.645580683836e-004
7.560000000000e+004 3.855400937478e+003 9.995499172000e+004 9.609959078252e+004 6.619548873878e-001 3.380451126122e-001 0.000000000000e+000 0.000000000000e+000 2.454519402190e+001 3.681779095443e+001  2.645589769181e-004
7.920000000000e+004 3.902487610200e+003 9.995499172000e+004 9.605250410980e+004 6.615582567472e-001 3.384417432528e-001 0.000000000000e+000 0.000000000000e+000 2.454527590950e+001 3.681791384402e+001  2.645598599570e-004
8.280000000000e+004 3.949574226666e+003 9.995499172000e+004 9.600541749333e+004 6.611682325943e-001 3.388317674057e-001 0.000000000000e+000 0.000000000000e+000 2.454535576281e+001 3.681803359268e+001  2.645607204264e-004
8.640000000000e+004 3.996660901549e+003 9.995499172000e+004 9.595833081845e+004 6.607846419041e-001 3.392153580959e-001 0.000000000000e+000 0.000000000000e+000 2.454543342288e+001 3.681815018114e+001  2.645615581878e-004
9.000000000000e+004 4.330022926319e+003 9.995499172000e+004 9.562496879368e+004 6.582392729992e-001 3.417607270008e-001 0.000000000000e+000 0.000000000000e+000 2.454592935879e+001 3.681889398584e+001  2.645669028922e-004
9.360000000000e+004 4.663572886821e+003 9.995499172000e+004 9.529141883318e+004 6.559562876461e-001 3.440437123539e-001 0.000000000000e+000 0.000000000000e+000 2.454634493308e+001 3.681951791461e+001  2.645713862128e-004
9.720000000000e+004 4.653998009901e+003 9.995499172000e+004 9.530099371010e+004 6.560185407039e-001 3.439814592961e-001 0.000000000000e+000 0.000000000000e+000 2.454633413457e+001 3.681950119743e+001  2.645712660893e-004
1.008000000000e+005 4.644198131796e+003 9.995499172000e+004 9.531079358820e+004 6.560824472007e-001 3.439175527993e-001 0.000000000000e+000 0.000000000000e+000 2.454632277630e+001 3.681948412638e+001  2.645711434231e-004
1.044000000000e+005 5.153957862939e+003 9.995499172000e+004 9.480103385706e+004 6.529950409683e-001 3.470049590317e-001 0.000000000000e+000 0.000000000000e+000 2.454684439513e+001 3.682026663924e+001  2.645767662700e-004
1.080000000000e+005 5.664057853130e+003 9.995499172000e+004 9.429093386687e+004 6.503206260563e-001 3.496793739437e-001 0.000000000000e+000 0.000000000000e+000 2.454725729042e+001 3.682088603875e+001  2.645812170449e-004
1.116000000000e+005 7.350588509533e+003 9.995499172000e+004 9.260440321047e+004 6.435331896334e-001 3.564668103666e-001 0.000000000000e+000 0.000000000000e+000 2.454814949533e+001 3.682222419971e+001  2.645908325728e-004
1.152000000000e+005 8.292882360163e+003 9.995499172000e+004 9.166210935984e+004 6.406796690364e-001 3.593203309636e-001 0.000000000000e+000 0.000000000000e+000 2.454846162343e+001 3.682269159154e+001  2.645941910769e-004
1.188000000000e+005 8.744452218894e+003 9.995499172000e+004 9.121053950111e+004 6.394805019712e-001 3.605194980288e-001 0.000000000000e+000 0.000000000000e+000 2.454858178541e+001 3.682287268640e+001  2.645954923573e-004
1.224000000000e+005 9.195703316875e+003 9.995499172000e+004 9.075928840313e+004 6.383729033139e-001 3.616270966861e-001 0.000000000000e+000 0.000000000000e+000 2.454868772030e+001 3.682303162415e+001  2.645966344250e-004
1.260000000000e+005 9.238670266891e+003 9.995499172000e+004 9.071632145311e+004 6.382717679816e-001 3.617282320184e-001 0.000000000000e+000 0.000000000000e+000 2.454869703608e+001 3.682304553217e+001  2.645967343629e-004
1.296000000000e+005 9.281376321283e+003 9.995499172000e+004 9.067361539872e+004 6.381719566442e-001 3.618280433558e-001 0.000000000000e+000 0.000000000000e+000 2.454870620060e+001 3.682305936832e+001  2.645968337843e-004
1.332000000000e+005 9.324082212823e+003 9.995499172000e+004 9.063090950718e+004 6.380728453671e-001 3.619271546329e-001 0.000000000000e+000 0.000000000000e+000 2.454871538057e+001 3.682307309803e+001  2.645969324410e-004
1.368000000000e+005 9.366788091874e+003 9.995499172000e+004 9.058820362813e+004 6.379744258840e-001 3.620255741160e-001 0.000000000000e+000 0.000000000000e+000 2.454872439626e+001 3.682308658482e+001  2.645970293520e-004
1.404000000000e+005 9.409493979393e+003 9.995499172000e+004 9.054549774061e+004 6.378766903562e-001 3.621233096438e-001 0.000000000000e+000 0.000000000000e+000 2.454873326658e+001 3.682309986953e+001  2.645971248110e-004
1.440000000000e+005 9.452199887835e+003 9.995499172000e+004 9.050279183216e+004 6.377796310860e-001 3.622203689140e-001 0.000000000000e+000 0.000000000000e+000 2.454874213990e+001 3.682311320212e+001  2.645972206140e-004
1.476000000000e+005 9.494905779269e+003 9.995499172000e+004 9.046008594073e+004 6.376832406076e-001 3.623167593924e-001 0.000000000000e+000 0.000000000000e+000 2.454875091722e+001 3.682312644615e+001  2.645973157807e-004
1.512000000000e+005 9.537611671665e+003 9.995499172000e+004 9.041738004834e+004 6.375875114441e-001 3.624124885559e-001 0.000000000000e+000 0.000000000000e+000 2.454875957033e+001 3.682313932402e+001  2.645974083163e-004
1.548000000000e+005 9.580317551280e+003 9.995499172000e+004 9.037467416872e+004 6.374924363031e-001 3.625075636969e-001 0.000000000000e+000 0.000000000000e+000 2.454876801663e+001 3.682315215415e+001  2.645975005088e-004
1.584000000000e+005 9.623023455759e+003 9.995499172000e+004 9.033196826424e+004 6.373980078897e-001 3.626019921103e-001 0.000000000000e+000 0.000000000000e+000 2.454877652646e+001 3.682316485225e+001  2.645975917527e-004
1.620000000000e+005 9.665729347213e+003 9.995499172000e+004 9.028926237279e+004 6.373042191856e-001 3.626957808144e-001 0.000000000000e+000 0.000000000000e+000 2.454878483542e+001 3.682317738668e+001  2.645976818205e-004
1.656000000000e+005 9.708435256864e+003 9.995499172000e+004 9.024655646314e+004 6.372110631271e-001 3.627889368729e-001 0.000000000000e+000 0.000000000000e+000 2.454879309049e+001 3.682318963404e+001  2.645977698254e-004
1.692000000000e+005 9.751141125141e+003 9.995499172000e+004 9.020385059486e+004 6.371185329533e-001 3.628814670467e-001 0.000000000000e+000 0.000000000000e+000 2.454880127507e+001 3.682320186458e+001  2.645978577096e-004
1.728000000000e+005 9.793847025176e+003 9.995499172000e+004 9.016114469482e+004 6.370266217184e-001 3.629733782816e-001 0.000000000000e+000 0.000000000000e+000 2.454880932528e+001 3.682321398663e+001  2.645979448141e-004
1.764000000000e+005 9.836552940903e+003 9.995499172000e+004 9.011843877910e+004 6.369353227718e-001 3.630646772282e-001 0.000000000000e+000 0.000000000000e+000 2.454881731802e+001 3.682322597885e+001  2.645980309857e-004
1.800000000000e+005 9.879258832434e+003 9.995499172000e+004 9.007573288757e+004 6.368446296115e-001 3.631553703885e-001 0.000000000000e+000 0.000000000000e+000 2.454882518437e+001 3.682323776266e+001  2.645981156599e-004
1.836000000000e+005 9.921964701167e+003 9.995499172000e+004 9.003302701883e+004 6.367545357438e-001 3.632454642562e-001 0.000000000000e+000 0.000000000000e+000 2.454883306398e+001 3.682324959003e+001  2.645982006469e-004
1.872000000000e+005 9.961166928638e+003 9.995499172000e+004 8.999382479136e+004 6.366723553263e-001 3.633276446737e-001 0.000000000000e+000 0.000000000000e+000 2.454884018082e+001 3.682326028342e+001  2.645982774856e-004
1.908000000000e+005 1.000036693757e+004 9.995499172000e+004 8.995462478243e+004 6.365906742041e-001 3.634093257959e-001 0.000000000000e+000 0.000000000000e+000 2.454884719015e+001 3.682327065595e+001  2.645983520188e-004
1.944000000000e+005 1.003472002313e+004 9.995499172000e+004 8.992027169687e+004 6.365194955033e-001 3.634805044967e-001 0.000000000000e+000 0.000000000000e+000 2.454885327797e+001 3.682327982224e+001  2.645984178844e-004
1.980000000000e+005 1.006907004144e+004 9.995499172000e+004 8.988592167856e+004 6.364486960902e-001 3.635513039098e-001 0.000000000000e+000 0.000000000000e+000 2.454885932859e+001 3.682328898638e+001  2.645984837344e-004
2.016000000000e+005 1.012465661437e+004 9.995499172000e+004 8.983033510563e+004 6.363349076038e-001 3.636650923962e-001 0.000000000000e+000 0.000000000000e+000 2.454886899130e+001 3.682330349862e+001  2.645985880140e-004
2.052000000000e+005 1.018025664920e+004 9.995499172000e+004 8.977473507080e+004 6.362220470193e-001 3.637779529807e-001 0.000000000000e+000 0.000000000000e+000 2.454887857661e+001 3.682331780410e+001  2.645986908079e-004
2.088000000000e+005 1.023585671919e+004 9.995499172000e+004 8.971913500081e+004 6.361101289946e-001 3.638898710054e-001 0.000000000000e+000 0.000000000000e+000 2.454888796433e+001 3.682333193794e+001  2.645987923684e-004
2.124000000000e+005 1.024989717350e+004 9.995499172000e+004 8.970509454650e+004 6.360820143626e-001 3.639179856374e-001 0.000000000000e+000 0.000000000000e+000 2.454889030522e+001 3.682333548379e+001  2.645988178476e-004
2.160000000000e+005 1.026391146541e+004 9.995499172000e+004 8.969108025459e+004 6.360540110506e-001 3.639459889494e-001 0.000000000000e+000 0.000000000000e+000 2.454889268950e+001 3.682333904920e+001  2.645988434673e-004
2.196000000000e+005 1.027792574695e+004 9.995499172000e+004 8.967706597305e+004 6.360260664364e-001 3.639739335636e-001 0.000000000000e+000 0.000000000000e+000 2.454889500592e+001 3.682334265412e+001  2.645988693709e-004
2.232000000000e+005 1.029194003129e+004 9.995499172000e+004 8.966305168871e+004 6.359981802947e-001 3.640018197053e-001 0.000000000000e+000 0.000000000000e+000 2.454889732320e+001 3.682334602655e+001  2.645988936040e-004
2.268000000000e+005 1.030595431706e+004 9.995499172000e+004 8.964903740294e+004 6.359703524298e-001 3.640296475702e-001 0.000000000000e+000 0.000000000000e+000 2.454889965899e+001 3.682334943427e+001  2.645989180906e-004
2.304000000000e+005 1.031996860380e+004 9.995499172000e+004 8.963502311620e+004 6.359425826453e-001 3.640574173547e-001 0.000000000000e+000 0.000000000000e+000 2.454890191440e+001 3.682335290654e+001  2.645989430410e-004
2.340000000000e+005 1.033398289134e+004 9.995499172000e+004 8.962100882866e+004 6.359148707453e-001 3.640851292547e-001 0.000000000000e+000 0.000000000000e+000 2.454890423918e+001 3.682335626019e+001  2.645989671391e-004
2.376000000000e+005 1.034799717952e+004 9.995499172000e+004 8.960699454048e+004 6.358872165345e-001 3.641127834655e-001 0.000000000000e+000 0.000000000000e+000 2.454890651570e+001 3.682336000564e+001  2.645989940525e-004
2.412000000000e+005 1.036201146822e+004 9.995499172000e+004 8.959298025178e+004 6.358596198185e-001 3.641403801815e-001 0.000000000000e+000 0.000000000000e+000 2.454890890220e+001 3.682336338029e+001  2.645990183015e-004
2.448000000000e+005 1.037602575747e+004 9.995499172000e+004 8.957896596253e+004 6.358320804036e-001 3.641679195964e-001 0.000000000000e+000 0.000000000000e+000 2.454891115866e+001 3.682336673846e+001  2.645990424320e-004
2.484000000000e+005 1.039004004708e+004 9.995499172000e+004 8.956495167292e+004 6.358045980975e-001 3.641954019025e-001 0.000000000000e+000 0.000000000000e+000 2.454891346706e+001 3.682337021469e+001  2.645990674110e-004
2.520000000000e+005 1.040405433708e+004 9.995499172000e+004 8.955093738292e+004 6.357771727081e-001 3.642228272919e-001 0.000000000000e+000 0.000000000000e+000 2.454891571628e+001 3.682337355463e+001  2.645990914105e-004
2.556000000000e+005 1.041806862745e+004 9.995499172000e+004 8.953692309255e+004 6.357498040446e-001 3.642501959554e-001 0.000000000000e+000 0.000000000000e+000 2.454891792283e+001 3.682337668518e+001  2.645991139055e-004
2.592000000000e+005 1.043208291814e+004 9.995499172000e+004 8.952290880186e+004 6.357224919168e-001 3.642775080832e-001 0.000000000000e+000 0.000000000000e+000 2.454892000769e+001 3.682337989256e+001  2.645991369525e-004
2.628000000000e+005 1.270656942394e+004 9.995499172000e+004 8.724842229606e+004 6.319231475471e-001 3.680768524529e-001 0.000000000000e+000 0.000000000000e+000 2.454920552742e+001 3.682380800827e+001  2.646022132331e-004
2.664000000000e+005 1.322267545835e+004 9.995499172000e+004 8.673231626165e+004 6.312045739399e-001 3.687954260601e-001 0.000000000000e+000 0.000000000000e+000 2.454925332051e+001 3.682387986611e+001  2.646027295768e-004
2.700000000000e+005 1.373767809146e+004 9.995499172000e+004 8.621731362854e+004 6.305296186773e-001 3.694703813227e-001 0.000000000000e+000 0.000000000000e+000 2.454929655975e+001 3.682394481841e+001  2.646031962999e-004
2.736000000000e+005 1.423808917110e+004 9.995499172000e+004 8.571690254890e+004 6.299103804794e-001 3.700896195206e-001 0.000000000000e+000 0.000000000000e+000 2.454933479028e+001 3.682400226541e+001  2.646036090928e-004
2.772000000000e+005 1.445895877874e+004 9.995499172000e+004 8.549603294126e+004 6.296477055580e-001 3.703522944420e-001 0.000000000000e+000 0.000000000000e+000 2.454935069596e+001 3.682402606930e+001  2.646037801387e-004
2.808000000000e+005 1.467965925994e+004 9.995499172000e+004 8.527533246006e+004 6.293913884546e-001 3.706086115454e-001 0.000000000000e+000 0.000000000000e+000 2.454936590463e+001 3.682404876852e+001  2.646039432468e-004
2.844000000000e+005 1.505889826528e+004 9.995499172000e+004 8.489609345472e+004 6.289646577725e-001 3.710353422275e-001 0.000000000000e+000 0.000000000000e+000 2.454939071105e+001 3.682408604344e+001  2.646042110906e-004
2.880000000000e+005 1.543823272288e+004 9.995499172000e+004 8.451675899712e+004 6.285542261013e-001 3.714457738987e-001 0.000000000000e+000 0.000000000000e+000 2.454941398982e+001 3.682412095831e+001  2.646044619759e-004
2.916000000000e+005 1.581756725894e+004 9.995499172000e+004 8.413742446106e+004 6.281592006295e-001 3.718407993705e-001 0.000000000000e+000 0.000000000000e+000 2.454943579459e+001 3.682415371084e+001  2.646046973234e-004
2.952000000000e+005 1.590301056018e+004 9.995499172000e+004 8.405198115982e+004 6.280722532926e-001 3.719277467074e-001 0.000000000000e+000 0.000000000000e+000 2.454944048220e+001 3.682416061559e+001  2.646047469384e-004
2.988000000000e+005 1.598827997007e+004 9.995499172000e+004 8.396671174993e+004 6.279862054304e-001 3.720137945696e-001 0.000000000000e+000 0.000000000000e+000 2.454944526025e+001 3.682416788627e+001  2.646047991828e-004
3.024000000000e+005 1.607354923513e+004 9.995499172000e+004 8.388144248487e+004 6.279008697708e-001 3.720991302292e-001 0.000000000000e+000 0.000000000000e+000 2.454944980866e+001 3.682417466999e+001  2.646048479281e-004
3.060000000000e+005 1.615881853863e+004 9.995499172000e+004 8.379617318137e+004 6.278162365873e-001 3.721837634127e-001 0.000000000000e+000 0.000000000000e+000 2.454945437517e+001 3.682418158310e+001  2.646048976031e-004
3.096000000000e+005 1.624408782401e+004 9.995499172000e+004 8.371090389599e+004 6.277322965712e-001 3.722677034288e-001 0.000000000000e+000 0.000000000000e+000 2.454945882500e+001 3.682418855283e+001  2.646049476850e-004
3.132000000000e+005 1.632935710899e+004 9.995499172000e+004 8.362563461101e+004 6.276490405109e-001 3.723509594891e-001 0.000000000000e+000 0.000000000000e+000 2.454946330142e+001 3.682419499050e+001  2.646049939437e-004
3.168000000000e+005 1.641462642093e+004 9.995499172000e+004 8.354036529907e+004 6.275664593546e-001 3.724335406454e-001 0.000000000000e+000 0.000000000000e+000 2.454946762544e+001 3.682420144354e+001  2.646050403129e-004
3.204000000000e+005 1.649989568123e+004 9.995499172000e+004 8.345509603877e+004 6.274845443163e-001 3.725154556837e-001 0.000000000000e+000 0.000000000000e+000 2.454947190174e+001 3.682420787400e+001  2.646050865198e-004
3.240000000000e+005 1.658516505266e+004 9.995499172000e+004 8.336982666734e+004 6.274032865387e-001 3.725967134613e-001 0.000000000000e+000 0.000000000000e+000 2.454947617931e+001 3.682421428475e+001  2.646051325850e-004
3.276000000000e+005 1.667043425558e+004 9.995499172000e+004 8.328455746442e+004 6.273226777428e-001 3.726773222572e-001 0.000000000000e+000 0.000000000000e+000 2.454948036580e+001 3.682422056245e+001  2.646051776942e-004
3.312000000000e+005 1.675570361793e+004 9.995499172000e+004 8.319928810207e+004 6.272427092263e-001 3.727572907737e-001 0.000000000000e+000 0.000000000000e+000 2.454948448306e+001 3.682422682279e+001  2.646052226788e-004
3.348000000000e+005 1.684097283202e+004 9.995499172000e+004 8.311401888798e+004 6.271633730353e-001 3.728366269647e-001 0.000000000000e+000 0.000000000000e+000 2.454948865879e+001 3.682423302781e+001  2.646052672657e-004
3.384000000000e+005 1.692624218470e+004 9.995499172000e+004 8.302874953530e+004 6.270846608064e-001 3.729153391936e-001 0.000000000000e+000 0.000000000000e+000 2.454949261478e+001 3.682423905964e+001  2.646053106082e-004
3.420000000000e+005 1.714910782467e+004 9.995499172000e+004 8.280588389533e+004 6.268818231902e-001 3.731181768098e-001 0.000000000000e+000 0.000000000000e+000 2.454950291439e+001 3.682425435737e+001  2.646054205320e-004
3.456000000000e+005 1.737205358817e+004 9.995499172000e+004 8.258293813183e+004 6.266829866998e-001 3.733170133002e-001 0.000000000000e+000 0.000000000000e+000 2.454951298748e+001 3.682426955933e+001  2.646055297676e-004
3.492000000000e+005 1.759499948851e+004 9.995499172000e+004 8.235999223149e+004 6.264880933078e-001 3.735119066922e-001 0.000000000000e+000 0.000000000000e+000 2.454952254625e+001 3.682428388970e+001  2.646056327404e-004
3.528000000000e+005 1.781794544104e+004 9.995499172000e+004 8.213704627896e+004 6.262970173209e-001 3.737029826791e-001 0.000000000000e+000 0.000000000000e+000 2.454953189935e+001 3.682429797092e+001  2.646057339228e-004
3.564000000000e+005 1.804089131760e+004 9.995499172000e+004 8.191410040240e+004 6.261096385617e-001 3.738903614383e-001 0.000000000000e+000 0.000000000000e+000 2.454954093062e+001 3.682431139592e+001  2.646058303899e-004
3.600000000000e+005 1.825212103745e+004 9.995499172000e+004 8.170287068255e+004 6.259354132934e-001 3.740645867066e-001 0.000000000000e+000 0.000000000000e+000 2.454954925625e+001 3.682432390179e+001  2.646059202524e-004
3.636000000000e+005 1.845162806857e+004 9.995499172000e+004 8.150336365143e+004 6.257737251585e-001 3.742262748415e-001 0.000000000000e+000 0.000000000000e+000 2.454955686299e+001 3.682433518748e+001  2.646060013471e-004
3.672000000000e+005 1.865112840944e+004 9.995499172000e+004 8.130386331056e+004 6.256147510318e-001 3.743852489682e-001 0.000000000000e+000 0.000000000000e+000 2.454956429294e+001 3.682434644891e+001  2.646060822676e-004
3.708000000000e+005 1.885632554287e+004 9.995499172000e+004 8.109866617713e+004 6.254539860072e-001 3.745460139928e-001 0.000000000000e+000 0.000000000000e+000 2.454957170281e+001 3.682435754604e+001  2.646061620074e-004
3.744000000000e+005 1.906722273215e+004 9.995499172000e+004 8.088776898785e+004 6.252915799728e-001 3.747084200272e-001 0.000000000000e+000 0.000000000000e+000 2.454957921106e+001 3.682436876742e+001  2.646062426401e-004
3.780000000000e+005 1.927812317024e+004 9.995499172000e+004 8.067686854976e+004 6.251319557438e-001 3.748680442562e-001 0.000000000000e+000 0.000000000000e+000 2.454958633827e+001 3.682437950244e+001  2.646063197780e-004
3.816000000000e+005 1.948902354853e+004 9.995499172000e+004 8.046596817147e+004 6.249750389581e-001 3.750249610419e-001 0.000000000000e+000 0.000000000000e+000 2.454959332924e+001 3.682439006097e+001  2.646063956477e-004
3.852000000000e+005 1.967372698457e+004 9.995499172000e+004 8.028126473543e+004 6.248397790422e-001 3.751602209578e-001 0.000000000000e+000 0.000000000000e+000 2.454959939310e+001 3.682439916430e+001  2.646064610609e-004
3.888000000000e+005 1.983221882840e+004 9.995499172000e+004 8.012277289160e+004 6.247252877839e-001 3.752747122161e-001 0.000000000000e+000 0.000000000000e+000 2.454960435296e+001 3.682440655912e+001  2.646065141973e-004
3.924000000000e+005 1.999069593504e+004 9.995499172000e+004 7.996429578496e+004 6.246122294231e-001 3.753877705769e-001 0.000000000000e+000 0.000000000000e+000 2.454960931599e+001 3.682441386843e+001  2.646065667192e-004
3.960000000000e+005 2.014917304244e+004 9.995499172000e+004 7.980581867756e+004 6.245005646850e-001 3.754994353150e-001 0.000000000000e+000 0.000000000000e+000 2.454961408639e+001 3.682442111744e+001  2.646066188080e-004
3.996000000000e+005 2.030765015906e+004 9.995499172000e+004 7.964734156094e+004 6.243902657904e-001 3.756097342096e-001 0.000000000000e+000 0.000000000000e+000 2.454961882366e+001 3.682442820635e+001  2.646066697462e-004
4.032000000000e+005 2.046612728636e+004 9.995499172000e+004 7.948886443364e+004 6.242813057258e-001 3.757186942742e-001 0.000000000000e+000 0.000000000000e+000 2.454962345052e+001 3.682443510930e+001  2.646067193483e-004
4.068000000000e+005 2.062460442688e+004 9.995499172000e+004 7.933038729312e+004 6.241736582115e-001 3.758263417885e-001 0.000000000000e+000 0.000000000000e+000 2.454962798191e+001 3.682444197396e+001  2.646067686752e-004
4.104000000000e+005 2.067861204032e+004 9.995499172000e+004 7.927637967968e+004 6.241372681823e-001 3.758627318177e-001 0.000000000000e+000 0.000000000000e+000 2.454962950856e+001 3.682444432346e+001  2.646067855578e-004
4.140000000000e+005 2.073256211856e+004 9.995499172000e+004 7.922242960144e+004 6.241010651529e-001 3.758989348471e-001 0.000000000000e+000 0.000000000000e+000 2.454963089685e+001 3.682444628910e+001  2.646067996822e-004
4.176000000000e+005 2.078651211627e+004 9.995499172000e+004 7.916847960373e+004 6.240650093495e-001 3.759349906505e-001 0.000000000000e+000 0.000000000000e+000 2.454963244828e+001 3.682444851229e+001  2.646068156572e-004
4.212000000000e+005 2.084046213961e+004 9.995499172000e+004 7.911452958039e+004 6.240290997284e-001 3.759709002716e-001 0.000000000000e+000 0.000000000000e+000 2.454963403580e+001 3.682445102339e+001  2.646068337010e-004
4.248000000000e+005 2.089441218429e+004 9.995499172000e+004 7.906057953571e+004 6.239933353292e-001 3.760066646708e-001 0.000000000000e+000 0.000000000000e+000 2.454963552783e+001 3.682445332436e+001  2.646068502349e-004
4.284000000000e+005 2.094836220472e+004 9.995499172000e+004 7.900662951528e+004 6.239577152274e-001 3.760422847726e-001 0.000000000000e+000 0.000000000000e+000 2.454963697895e+001 3.682445546908e+001  2.646068656461e-004
4.320000000000e+005 2.095818634991e+004 9.995499172000e+004 7.899680537009e+004 6.239512443628e-001 3.760487556372e-001 0.000000000000e+000 0.000000000000e+000 2.454963720345e+001 3.682445594676e+001  2.646068690785e-004
4.356000000000e+005 2.096798636101e+004 9.995499172000e+004 7.898700535899e+004 6.239447941243e-001 3.760552058757e-001 0.000000000000e+000 0.000000000000e+000 2.454963746776e+001 3.682445619471e+001  2.646068708602e-004
4.392000000000e+005 2.097778636099e+004 9.995499172000e+004 7.897720535901e+004 6.239383486113e-001 3.760616513887e-001 0.000000000000e+000 0.000000000000e+000 2.454963784845e+001 3.682445680972e+001  2.646068752794e-004
4.428000000000e+005 2.098758636135e+004 9.995499172000e+004 7.896740535865e+004 6.239319078108e-001 3.760680921892e-001 0.000000000000e+000 0.000000000000e+000 2.454963796091e+001 3.682445699324e+001  2.646068765981e-004
4.464000000000e+005 2.124288441430e+004 9.995499172000e+004 7.871210730570e+004 6.237657615648e-001 3.762342384352e-001 0.000000000000e+000 0.000000000000e+000 2.454964416746e+001 3.682446635656e+001  2.646069438795e-004
4.500000000000e+005 2.179526568260e+004 9.995499172000e+004 7.815972603740e+004 6.234167549856e-001 3.765832450144e-001 0.000000000000e+000 0.000000000000e+000 2.454965820100e+001 3.682448735465e+001  2.646070947639e-004
4.536000000000e+005 2.239464021738e+004 9.995499172000e+004 7.756035150262e+004 6.230533997398e-001 3.769466002602e-001 0.000000000000e+000 0.000000000000e+000 2.454967256896e+001 3.682450887230e+001  2.646072493818e-004
4.572000000000e+005 2.892067832966e+004 9.995499172000e+004 7.103431339034e+004 6.198900133983e-001 3.801099866017e-001 0.000000000000e+000 0.000000000000e+000 2.454978152709e+001 3.682467229911e+001  2.646084237062e-004
4.608000000000e+005 2.893833507570e+004 9.995499172000e+004 7.101665664430e+004 6.198830018203e-001 3.801169981797e-001 0.000000000000e+000 0.000000000000e+000 2.454978171123e+001 3.682467256777e+001  2.646084256367e-004
4.644000000000e+005 2.897909413446e+004 9.995499172000e+004 7.097589758554e+004 6.198668418546e-001 3.801331581454e-001 0.000000000000e+000 0.000000000000e+000 2.454978215691e+001 3.682467323196e+001  2.646084304093e-004
4.680000000000e+005 2.904586215944e+004 9.995499172000e+004 7.090912956056e+004 6.198404470071e-001 3.801595529929e-001 0.000000000000e+000 0.000000000000e+000 2.454978296434e+001 3.682467443446e+001  2.646084390500e-004
4.716000000000e+005 2.912284615237e+004 9.995499172000e+004 7.083214556763e+004 6.198101316680e-001 3.801898683320e-001 0.000000000000e+000 0.000000000000e+000 2.454978379587e+001 3.682467561470e+001  2.646084475308e-004
4.752000000000e+005 2.920256292545e+004 9.995499172000e+004 7.075242879455e+004 6.197788726228e-001 3.802211273772e-001 0.000000000000e+000 0.000000000000e+000 2.454978472678e+001 3.682467711417e+001  2.646084583054e-004
4.788000000000e+005 2.928030875511e+004 9.995499172000e+004 7.067468296489e+004 6.197485153306e-001 3.802514846694e-001 0.000000000000e+000 0.000000000000e+000 2.454978565073e+001 3.682467853053e+001  2.646084684828e-004