 TITLE = "Time curves in points"
 VARIABLES = "TIME "  "PRESSURE1"  "PRESSURE2"  "PRESSURE_W"  "SATURATION1" SATURATION2  "n"  "Ki"  p_(1st_Invariant)  q_(2nd_Invariant)   Effective_Strain
 ZONE T="POINT=POINT0"
0.000000000000e+000 -3.634610000000e+004 1.000000000000e+005 1.363461000000e+005 7.510000000000e-001 2.490000000000e-001 2.023498589800e-001 7.041029776600e-013 -0.000000000000e+000 0.000000000000e+000  0.000000000000e+000
3.600000000000e+003 -3.634610000000e+004 1.000000000000e+005 1.363461000000e+005 7.510000000000e-001 2.490000000000e-001 2.023498589800e-001 7.041029776600e-013 -7.439714361311e+003 1.115957154197e+004  8.018853802610e-002
7.200000000000e+003 -3.511980000000e+004 1.000000000000e+005 1.351198000000e+005 7.510000000000e-001 2.490000000000e-001 2.023498589800e-001 7.041029776600e-013 -7.873197796799e+003 1.180979669520e+004  8.486081457628e-002
1.080000000000e+004 -3.312840000000e+004 1.000000000000e+005 1.331284000000e+005 7.510000000000e-001 2.490000000000e-001 2.023498589800e-001 7.041029776600e-013 -8.304969743458e+003 1.245745461518e+004  8.951464394145e-002
1.440000000000e+004 -3.295180000000e+004 1.000000000000e+005 1.329518000000e+005 7.510000000000e-001 2.490000000000e-001 2.023498589800e-001 7.041029776600e-013 -8.362369854326e+003 1.254355478148e+004  9.013332777111e-002
1.800000000000e+004 -3.277520000000e+004 1.000000000000e+005 1.327752000000e+005 7.510000000000e-001 2.490000000000e-001 2.023498589800e-001 7.041029776600e-013 -8.401266156345e+003 1.260189923450e+004  9.055256934973e-002
2.160000000000e+004 -3.279485000000e+004 1.000000000000e+005 1.327948500000e+005 7.510000000000e-001 2.490000000000e-001 2.023498589800e-001 7.041029776600e-013 -8.399012326055e+003 1.259851848908e+004  9.052827656825e-002
2.520000000000e+004 -3.281450000000e+004 1.000000000000e+005 1.328145000000e+005 7.510000000000e-001 2.490000000000e-001 2.023498589800e-001 7.041029776600e-013 -8.394788176472e+003 1.259218226472e+004  9.048274681235e-002
2.880000000000e+004 -3.288805000000e+004 1.000000000000e+005 1.328880500000e+005 7.510000000000e-001 2.490000000000e-001 2.023498589800e-001 7.041029776600e-013 -8.379342569551e+003 1.256901385432e+004  9.031626721665e-002
3.240000000000e+004 -3.296160000000e+004 1.000000000000e+005 1.329616000000e+005 7.510000000000e-001 2.490000000000e-001 2.023498589800e-001 7.041029776600e-013 -8.363355961720e+003 1.254503394258e+004  9.014395647364e-002
3.600000000000e+004 -3.291451333333e+004 1.000000000000e+005 1.329145133333e+005 7.510000000000e-001 2.490000000000e-001 2.023498589800e-001 7.041029776600e-013 -8.372362889694e+003 1.255854433448e+004  9.024103713396e-002
3.960000000000e+004 -3.286742666667e+004 1.000000000000e+005 1.328674266667e+005 7.510000000000e-001 2.490000000000e-001 2.023498589800e-001 7.041029776600e-013 -8.382574807466e+003 1.257386221120e+004  9.035110570926e-002
4.320000000000e+004 -3.282034000000e+004 1.000000000000e+005 1.328203400000e+005 7.510000000000e-001 2.490000000000e-001 2.023498589800e-001 7.041029776600e-013 -8.392817540793e+003 1.258922631118e+004  9.046150642767e-002
4.680000000000e+004 -3.277325333333e+004 1.000000000000e+005 1.327732533333e+005 7.510000000000e-001 2.490000000000e-001 2.023498589800e-001 7.041029776600e-013 -8.403058725712e+003 1.260458808857e+004  9.057189045678e-002
5.040000000000e+004 -3.272616666667e+004 1.000000000000e+005 1.327261666667e+005 7.510000000000e-001 2.490000000000e-001 2.023498589800e-001 7.041029776600e-013 -8.413294273055e+003 1.261994140961e+004  9.068221372178e-002
5.400000000000e+004 -3.267908000000e+004 1.000000000000e+005 1.326790800000e+005 7.510000000000e-001 2.490000000000e-001 2.023498589800e-001 7.041029776600e-013 -8.423528655181e+003 1.263529298276e+004  9.079252442704e-002
5.760000000000e+004 -3.263199333333e+004 1.000000000000e+005 1.326319933333e+005 7.510000000000e-001 2.490000000000e-001 2.023498589800e-001 7.041029776600e-013 -8.433764280680e+003 1.265064642103e+004  9.090284853435e-002
6.120000000000e+004 -3.258490666667e+004 1.000000000000e+005 1.325849066667e+005 7.510000000000e-001 2.490000000000e-001 2.023498589800e-001 7.041029776600e-013 -8.443997454317e+003 1.266599618147e+004  9.101314621413e-002
6.480000000000e+004 -3.253782000000e+004 1.000000000000e+005 1.325378200000e+005 7.510000000000e-001 2.490000000000e-001 2.023498589800e-001 7.041029776600e-013 -8.454225103677e+003 1.268133765551e+004  9.112338435094e-002
6.840000000000e+004 -3.249073333333e+004 1.000000000000e+005 1.324907333333e+005 7.510000000000e-001 2.490000000000e-001 2.023498589800e-001 7.041029776600e-013 -8.464452495887e+003 1.269667874383e+004  9.123361971615e-002
7.200000000000e+004 -3.244364666667e+004 1.000000000000e+005 1.324436466667e+005 7.510000000000e-001 2.490000000000e-001 2.023498589800e-001 7.041029776600e-013 -8.474680943602e+003 1.271202141540e+004  9.134386645800e-002
7.560000000000e+004 -3.239656000000e+004 1.000000000000e+005 1.323965600000e+005 7.510000000000e-001 2.490000000000e-001 2.023498589800e-001 7.041029776600e-013 -8.484906517380e+003 1.272735977605e+004  9.145408222309e-002
7.920000000000e+004 -3.234947333333e+004 1.000000000000e+005 1.323494733333e+005 7.510000000000e-001 2.490000000000e-001 2.023498589800e-001 7.041029776600e-013 -8.495126946649e+003 1.274269041997e+004  9.156424253871e-002
8.280000000000e+004 -3.230238666667e+004 1.000000000000e+005 1.323023866667e+005 7.510000000000e-001 2.490000000000e-001 2.023498589800e-001 7.041029776600e-013 -8.505347877902e+003 1.275802181685e+004  9.167440826482e-002
8.640000000000e+004 -3.225530000000e+004 1.000000000000e+005 1.322553000000e+005 7.510000000000e-001 2.490000000000e-001 2.023498589800e-001 7.041029776600e-013 -8.515569628802e+003 1.277335444316e+004  9.178458282514e-002
9.000000000000e+004 -3.192175000000e+004 1.000000000000e+005 1.319217500000e+005 7.510000000000e-001 2.490000000000e-001 2.023498589800e-001 7.041029776600e-013 -8.585018517190e+003 1.287752777579e+004  9.253313371823e-002
9.360000000000e+004 -3.158820000000e+004 1.000000000000e+005 1.315882000000e+005 7.510000000000e-001 2.490000000000e-001 2.023498589800e-001 7.041029776600e-013 -8.657237801268e+003 1.298585670189e+004  9.331154516331e-002
9.720000000000e+004 -3.159800000000e+004 1.000000000000e+005 1.315980000000e+005 7.510000000000e-001 2.490000000000e-001 2.023498589800e-001 7.041029776600e-013 -8.658567434510e+003 1.298785115176e+004  9.332587653963e-002
1.008000000000e+005 -3.160780000000e+004 1.000000000000e+005 1.316078000000e+005 7.510000000000e-001 2.490000000000e-001 2.023498589800e-001 7.041029776600e-013 -8.656527799587e+003 1.298479169934e+004  9.330389245032e-002
1.044000000000e+005 -3.109770000000e+004 1.000000000000e+005 1.310977000000e+005 7.510000000000e-001 2.490000000000e-001 2.023498589800e-001 7.041029776600e-013 -8.761741976445e+003 1.314261296465e+004  9.443793747053e-002
1.080000000000e+005 -3.058760000000e+004 1.000000000000e+005 1.305876000000e+005 7.510000000000e-001 2.490000000000e-001 2.023498589800e-001 7.041029776600e-013 -8.871936584129e+003 1.330790487619e+004  9.562566378102e-002
1.116000000000e+005 -2.890030000000e+004 1.000000000000e+005 1.289003000000e+005 7.510000000000e-001 2.490000000000e-001 2.023498589800e-001 7.041029776600e-013 -9.224586361522e+003 1.383687954228e+004  9.942667934574e-002
1.152000000000e+005 -2.795850000000e+004 1.000000000000e+005 1.279585000000e+005 7.510000000000e-001 2.490000000000e-001 2.023498589800e-001 7.041029776600e-013 -9.434588611425e+003 1.415188291712e+004  1.016901766500e-001
1.188000000000e+005 -2.750725000000e+004 1.000000000000e+005 1.275072500000e+005 7.510000000000e-001 2.490000000000e-001 2.023498589800e-001 7.041029776600e-013 -9.536571979331e+003 1.430485796900e+004  1.027893985796e-001
1.224000000000e+005 -2.705600000000e+004 1.000000000000e+005 1.270560000000e+005 7.510000000000e-001 2.490000000000e-001 2.023498589800e-001 7.041029776600e-013 -9.633760732821e+003 1.445064109924e+004  1.038369420305e-001
1.260000000000e+005 -2.701329411765e+004 1.000000000000e+005 1.270132941176e+005 7.510000000000e-001 2.490000000000e-001 2.023498589800e-001 7.041029776600e-013 -9.646747310675e+003 1.447012096601e+004  1.039769171211e-001
1.296000000000e+005 -2.697058823529e+004 1.000000000000e+005 1.269705882353e+005 7.510000000000e-001 2.490000000000e-001 2.023498589800e-001 7.041029776600e-013 -9.656015454758e+003 1.448402318215e+004  1.040768132849e-001
1.332000000000e+005 -2.692788235294e+004 1.000000000000e+005 1.269278823529e+005 7.510000000000e-001 2.490000000000e-001 2.023498589800e-001 7.041029776600e-013 -9.665196057145e+003 1.449779408572e+004  1.041757658854e-001
1.368000000000e+005 -2.688517647059e+004 1.000000000000e+005 1.268851764706e+005 7.510000000000e-001 2.490000000000e-001 2.023498589800e-001 7.041029776600e-013 -9.674375794968e+003 1.451156369245e+004  1.042747091673e-001
1.404000000000e+005 -2.684247058824e+004 1.000000000000e+005 1.268424705882e+005 7.510000000000e-001 2.490000000000e-001 2.023498589800e-001 7.041029776600e-013 -9.683557788376e+003 1.452533668256e+004  1.043736767609e-001
1.440000000000e+005 -2.679976470588e+004 1.000000000000e+005 1.267997647059e+005 7.510000000000e-001 2.490000000000e-001 2.023498589800e-001 7.041029776600e-013 -9.692739775147e+003 1.453910966272e+004  1.044726442830e-001
1.476000000000e+005 -2.675705882353e+004 1.000000000000e+005 1.267570588235e+005 7.510000000000e-001 2.490000000000e-001 2.023498589800e-001 7.041029776600e-013 -9.701918321596e+003 1.455287748240e+004  1.045715747238e-001
1.512000000000e+005 -2.671435294118e+004 1.000000000000e+005 1.267143529412e+005 7.510000000000e-001 2.490000000000e-001 2.023498589800e-001 7.041029776600e-013 -9.711096139060e+003 1.456664420859e+004  1.046704973072e-001
1.548000000000e+005 -2.667164705882e+004 1.000000000000e+005 1.266716470588e+005 7.510000000000e-001 2.490000000000e-001 2.023498589800e-001 7.041029776600e-013 -9.720275994279e+003 1.458041399145e+004  1.047694418547e-001
1.584000000000e+005 -2.662894117647e+004 1.000000000000e+005 1.266289411765e+005 7.510000000000e-001 2.490000000000e-001 2.023498589800e-001 7.041029776600e-013 -9.729456719609e+003 1.459418507941e+004  1.048683957802e-001
1.620000000000e+005 -2.658623529412e+004 1.000000000000e+005 1.265862352941e+005 7.510000000000e-001 2.490000000000e-001 2.023498589800e-001 7.041029776600e-013 -9.738634840089e+003 1.460795226013e+004  1.049673216297e-001
1.656000000000e+005 -2.654352941176e+004 1.000000000000e+005 1.265435294118e+005 7.510000000000e-001 2.490000000000e-001 2.023498589800e-001 7.041029776600e-013 -9.747810945478e+003 1.462171641822e+004  1.050662257596e-001
1.692000000000e+005 -2.650082352941e+004 1.000000000000e+005 1.265008235294e+005 7.510000000000e-001 2.490000000000e-001 2.023498589800e-001 7.041029776600e-013 -9.756988678564e+003 1.463548301786e+004  1.051651474337e-001
1.728000000000e+005 -2.645811764706e+004 1.000000000000e+005 1.264581176471e+005 7.510000000000e-001 2.490000000000e-001 2.023498589800e-001 7.041029776600e-013 -9.766168025117e+003 1.464925203771e+004  1.052640864985e-001
1.764000000000e+005 -2.641541176471e+004 1.000000000000e+005 1.264154117647e+005 7.510000000000e-001 2.490000000000e-001 2.023498589800e-001 7.041029776600e-013 -9.775345795671e+003 1.466301869351e+004  1.053630085761e-001
1.800000000000e+005 -2.637270588235e+004 1.000000000000e+005 1.263727058824e+005 7.510000000000e-001 2.490000000000e-001 2.023498589800e-001 7.041029776600e-013 -9.784520333788e+003 1.467678050067e+004  1.054618958132e-001
1.836000000000e+005 -2.633000000000e+004 1.000000000000e+005 1.263300000000e+005 7.510000000000e-001 2.490000000000e-001 2.023498589800e-001 7.041029776600e-013 -9.793696061292e+003 1.469054409188e+004  1.055607958698e-001
1.872000000000e+005 -2.629080000000e+004 1.000000000000e+005 1.262908000000e+005 7.510000000000e-001 2.490000000000e-001 2.023498589800e-001 7.041029776600e-013 -9.802152508668e+003 1.470322876301e+004  1.056519432072e-001
1.908000000000e+005 -2.625160000000e+004 1.000000000000e+005 1.262516000000e+005 7.510000000000e-001 2.490000000000e-001 2.023498589800e-001 7.041029776600e-013 -9.810577223183e+003 1.471586583479e+004  1.057427485134e-001
1.944000000000e+005 -2.621725000000e+004 1.000000000000e+005 1.262172500000e+005 7.510000000000e-001 2.490000000000e-001 2.023498589800e-001 7.041029776600e-013 -9.818000171349e+003 1.472700025701e+004  1.058227563378e-001
1.980000000000e+005 -2.618290000000e+004 1.000000000000e+005 1.261829000000e+005 7.510000000000e-001 2.490000000000e-001 2.023498589800e-001 7.041029776600e-013 -9.825379524190e+003 1.473806928628e+004  1.059022942727e-001
2.016000000000e+005 -2.612730000000e+004 1.000000000000e+005 1.261273000000e+005 7.510000000000e-001 2.490000000000e-001 2.023498589800e-001 7.041029776600e-013 -9.837131646219e+003 1.475569746933e+004  1.060289638515e-001
2.052000000000e+005 -2.607170000000e+004 1.000000000000e+005 1.260717000000e+005 7.510000000000e-001 2.490000000000e-001 2.023498589800e-001 7.041029776600e-013 -9.849074142140e+003 1.477361121321e+004  1.061576853644e-001
2.088000000000e+005 -2.601610000000e+004 1.000000000000e+005 1.260161000000e+005 7.510000000000e-001 2.490000000000e-001 2.023498589800e-001 7.041029776600e-013 -9.861016507378e+003 1.479152476107e+004  1.062864054687e-001
2.124000000000e+005 -2.600208571429e+004 1.000000000000e+005 1.260020857143e+005 7.510000000000e-001 2.490000000000e-001 2.023498589800e-001 7.041029776600e-013 -9.864403206909e+003 1.479660481037e+004  1.063229088170e-001
2.160000000000e+005 -2.598807142857e+004 1.000000000000e+005 1.259880714286e+005 7.510000000000e-001 2.490000000000e-001 2.023498589800e-001 7.041029776600e-013 -9.867421518695e+003 1.480113227805e+004  1.063554415189e-001
2.196000000000e+005 -2.597405714286e+004 1.000000000000e+005 1.259740571429e+005 7.510000000000e-001 2.490000000000e-001 2.023498589800e-001 7.041029776600e-013 -9.870432008549e+003 1.480564801281e+004  1.063878899124e-001
2.232000000000e+005 -2.596004285714e+004 1.000000000000e+005 1.259600428571e+005 7.510000000000e-001 2.490000000000e-001 2.023498589800e-001 7.041029776600e-013 -9.873442659364e+003 1.481016398907e+004  1.064203400412e-001
2.268000000000e+005 -2.594602857143e+004 1.000000000000e+005 1.259460285714e+005 7.510000000000e-001 2.490000000000e-001 2.023498589800e-001 7.041029776600e-013 -9.876453623588e+003 1.481468043536e+004  1.064527935475e-001
2.304000000000e+005 -2.593201428571e+004 1.000000000000e+005 1.259320142857e+005 7.510000000000e-001 2.490000000000e-001 2.023498589800e-001 7.041029776600e-013 -9.879464705414e+003 1.481919705814e+004  1.064852483220e-001
2.340000000000e+005 -2.591800000000e+004 1.000000000000e+005 1.259180000000e+005 7.510000000000e-001 2.490000000000e-001 2.023498589800e-001 7.041029776600e-013 -9.882475571373e+003 1.482371335703e+004  1.065177007691e-001
2.376000000000e+005 -2.590398571429e+004 1.000000000000e+005 1.259039857143e+005 7.510000000000e-001 2.490000000000e-001 2.023498589800e-001 7.041029776600e-013 -9.885486306379e+003 1.482822945959e+004  1.065501518054e-001
2.412000000000e+005 -2.588997142857e+004 1.000000000000e+005 1.258899714286e+005 7.510000000000e-001 2.490000000000e-001 2.023498589800e-001 7.041029776600e-013 -9.888496225130e+003 1.483274433768e+004  1.065825940432e-001
2.448000000000e+005 -2.587595714286e+004 1.000000000000e+005 1.258759571429e+005 7.510000000000e-001 2.490000000000e-001 2.023498589800e-001 7.041029776600e-013 -9.891505706436e+003 1.483725855965e+004  1.066150315663e-001
2.484000000000e+005 -2.586194285714e+004 1.000000000000e+005 1.258619428571e+005 7.510000000000e-001 2.490000000000e-001 2.023498589800e-001 7.041029776600e-013 -9.894515023599e+003 1.484177253539e+004  1.066474673202e-001
2.520000000000e+005 -2.584792857143e+004 1.000000000000e+005 1.258479285714e+005 7.510000000000e-001 2.490000000000e-001 2.023498589800e-001 7.041029776600e-013 -9.897524339496e+003 1.484628650924e+004  1.066799030604e-001
2.556000000000e+005 -2.583391428571e+004 1.000000000000e+005 1.258339142857e+005 7.510000000000e-001 2.490000000000e-001 2.023498589800e-001 7.041029776600e-013 -9.900533715148e+003 1.485080057274e+004  1.067123394448e-001
2.592000000000e+005 -2.581990000000e+004 1.000000000000e+005 1.258199000000e+005 7.510000000000e-001 2.490000000000e-001 2.023498589800e-001 7.041029776600e-013 -9.903543225576e+003 1.485531483833e+004  1.067447772814e-001
2.628000000000e+005 -2.354400000000e+004 1.000000000000e+005 1.235440000000e+005 7.510000000000e-001 2.490000000000e-001 2.023498589800e-001 7.041029776600e-013 -1.037197104655e+004 1.555795656982e+004  1.117936999029e-001
2.664000000000e+005 -2.302900000000e+004 1.000000000000e+005 1.230290000000e+005 7.510000000000e-001 2.490000000000e-001 2.023498589800e-001 7.041029776600e-013 -1.049766801773e+004 1.574650202660e+004  1.131485175564e-001
2.700000000000e+005 -2.251400000000e+004 1.000000000000e+005 1.225140000000e+005 7.510000000000e-001 2.490000000000e-001 2.023498589800e-001 7.041029776600e-013 -1.060844436943e+004 1.591266655416e+004  1.143425141616e-001
2.736000000000e+005 -2.201360000000e+004 1.000000000000e+005 1.220136000000e+005 7.510000000000e-001 2.490000000000e-001 2.023498589800e-001 7.041029776600e-013 -1.071585515315e+004 1.607378272974e+004  1.155002351838e-001
2.772000000000e+005 -2.179290000000e+004 1.000000000000e+005 1.217929000000e+005 7.510000000000e-001 2.490000000000e-001 2.023498589800e-001 7.041029776600e-013 -1.076548540540e+004 1.614822810810e+004  1.160351720343e-001
2.808000000000e+005 -2.157220000000e+004 1.000000000000e+005 1.215722000000e+005 7.510000000000e-001 2.490000000000e-001 2.023498589800e-001 7.041029776600e-013 -1.081282302680e+004 1.621923454019e+004  1.165453978936e-001
2.844000000000e+005 -2.119286666667e+004 1.000000000000e+005 1.211928666667e+005 7.510000000000e-001 2.490000000000e-001 2.023498589800e-001 7.041029776600e-013 -1.089280012883e+004 1.633920019325e+004  1.174074265383e-001
2.880000000000e+005 -2.081353333333e+004 1.000000000000e+005 1.208135333333e+005 7.510000000000e-001 2.490000000000e-001 2.023498589800e-001 7.041029776600e-013 -1.097404079129e+004 1.646106118653e+004  1.182830743942e-001
2.916000000000e+005 -2.043420000000e+004 1.000000000000e+005 1.204342000000e+005 7.510000000000e-001 2.490000000000e-001 2.023498589800e-001 7.041029776600e-013 -1.105529214764e+004 1.658293822145e+004  1.191588375194e-001
2.952000000000e+005 -2.034893076923e+004 1.000000000000e+005 1.203489307692e+005 7.510000000000e-001 2.490000000000e-001 2.023498589800e-001 7.041029776600e-013 -1.107588748786e+004 1.661383123180e+004  1.193808232225e-001
2.988000000000e+005 -2.026366153846e+004 1.000000000000e+005 1.202636615385e+005 7.510000000000e-001 2.490000000000e-001 2.023498589800e-001 7.041029776600e-013 -1.109418967001e+004 1.664128450503e+004  1.195780922517e-001
3.024000000000e+005 -2.017839230769e+004 1.000000000000e+005 1.201783923077e+005 7.510000000000e-001 2.490000000000e-001 2.023498589800e-001 7.041029776600e-013 -1.111244377206e+004 1.666866565808e+004  1.197748430521e-001
3.060000000000e+005 -2.009312307692e+004 1.000000000000e+005 1.200931230769e+005 7.510000000000e-001 2.490000000000e-001 2.023498589800e-001 7.041029776600e-013 -1.113069970209e+004 1.669604955312e+004  1.199716135553e-001
3.096000000000e+005 -2.000785384615e+004 1.000000000000e+005 1.200078538462e+005 7.510000000000e-001 2.490000000000e-001 2.023498589800e-001 7.041029776600e-013 -1.114895209532e+004 1.672342814298e+004  1.201683459376e-001
3.132000000000e+005 -1.992258461538e+004 1.000000000000e+005 1.199225846154e+005 7.510000000000e-001 2.490000000000e-001 2.023498589800e-001 7.041029776600e-013 -1.116720611424e+004 1.675080917136e+004  1.203650958421e-001
3.168000000000e+005 -1.983731538462e+004 1.000000000000e+005 1.198373153846e+005 7.510000000000e-001 2.490000000000e-001 2.023498589800e-001 7.041029776600e-013 -1.118545772740e+004 1.677818659109e+004  1.205618198162e-001
3.204000000000e+005 -1.975204615385e+004 1.000000000000e+005 1.197520461538e+005 7.510000000000e-001 2.490000000000e-001 2.023498589800e-001 7.041029776600e-013 -1.120370969471e+004 1.680556454207e+004  1.207585476077e-001
3.240000000000e+005 -1.966677692308e+004 1.000000000000e+005 1.196667769231e+005 7.510000000000e-001 2.490000000000e-001 2.023498589800e-001 7.041029776600e-013 -1.122196069064e+004 1.683294103597e+004  1.209552649291e-001
3.276000000000e+005 -1.958150769231e+004 1.000000000000e+005 1.195815076923e+005 7.510000000000e-001 2.490000000000e-001 2.023498589800e-001 7.041029776600e-013 -1.124021053332e+004 1.686031579999e+004  1.211519698203e-001
3.312000000000e+005 -1.949623846154e+004 1.000000000000e+005 1.194962384615e+005 7.510000000000e-001 2.490000000000e-001 2.023498589800e-001 7.041029776600e-013 -1.125846059764e+004 1.688769089636e+004  1.213486770996e-001
3.348000000000e+005 -1.941096923077e+004 1.000000000000e+005 1.194109692308e+005 7.510000000000e-001 2.490000000000e-001 2.023498589800e-001 7.041029776600e-013 -1.127670858390e+004 1.691506287584e+004  1.215453619821e-001
3.384000000000e+005 -1.932570000000e+004 1.000000000000e+005 1.193257000000e+005 7.510000000000e-001 2.490000000000e-001 2.023498589800e-001 7.041029776600e-013 -1.129495749894e+004 1.694243624845e+004  1.217420568751e-001
3.420000000000e+005 -1.910275454545e+004 1.000000000000e+005 1.191027545455e+005 7.510000000000e-001 2.490000000000e-001 2.023498589800e-001 7.041029776600e-013 -1.134161522587e+004 1.701242283880e+004  1.222449545303e-001
3.456000000000e+005 -1.887980909091e+004 1.000000000000e+005 1.188798090909e+005 7.510000000000e-001 2.490000000000e-001 2.023498589800e-001 7.041029776600e-013 -1.138930785879e+004 1.708396178819e+004  1.227590068613e-001
3.492000000000e+005 -1.865686363636e+004 1.000000000000e+005 1.186568636364e+005 7.510000000000e-001 2.490000000000e-001 2.023498589800e-001 7.041029776600e-013 -1.143701647997e+004 1.715552471994e+004  1.232732315205e-001
3.528000000000e+005 -1.843391818182e+004 1.000000000000e+005 1.184339181818e+005 7.510000000000e-001 2.490000000000e-001 2.023498589800e-001 7.041029776600e-013 -1.148471925774e+004 1.722707888663e+004  1.237873931974e-001
3.564000000000e+005 -1.821097272727e+004 1.000000000000e+005 1.182109727273e+005 7.510000000000e-001 2.490000000000e-001 2.023498589800e-001 7.041029776600e-013 -1.153241546871e+004 1.729862320306e+004  1.243014840939e-001
3.600000000000e+005 -1.799975000000e+004 1.000000000000e+005 1.179997500000e+005 7.510000000000e-001 2.490000000000e-001 2.023498589800e-001 7.041029776600e-013 -1.157768721546e+004 1.736653082319e+004  1.247894430409e-001
3.636000000000e+005 -1.780025000000e+004 1.000000000000e+005 1.178002500000e+005 7.510000000000e-001 2.490000000000e-001 2.023498589800e-001 7.041029776600e-013 -1.162044880293e+004 1.743067320442e+004  1.252503463790e-001
3.672000000000e+005 -1.760075000000e+004 1.000000000000e+005 1.176007500000e+005 7.510000000000e-001 2.490000000000e-001 2.023498589800e-001 7.041029776600e-013 -1.166312107137e+004 1.749468160706e+004  1.257102869968e-001
3.708000000000e+005 -1.739555000000e+004 1.000000000000e+005 1.173955500000e+005 7.510000000000e-001 2.490000000000e-001 2.023498589800e-001 7.041029776600e-013 -1.170696628106e+004 1.756044942159e+004  1.261828700953e-001
3.744000000000e+005 -1.718465000000e+004 1.000000000000e+005 1.171846500000e+005 7.510000000000e-001 2.490000000000e-001 2.023498589800e-001 7.041029776600e-013 -1.175202627028e+004 1.762803940541e+004  1.266685466257e-001
3.780000000000e+005 -1.697375000000e+004 1.000000000000e+005 1.169737500000e+005 7.510000000000e-001 2.490000000000e-001 2.023498589800e-001 7.041029776600e-013 -1.179712123386e+004 1.769568185078e+004  1.271546001253e-001
3.816000000000e+005 -1.676285000000e+004 1.000000000000e+005 1.167628500000e+005 7.510000000000e-001 2.490000000000e-001 2.023498589800e-001 7.041029776600e-013 -1.184221322349e+004 1.776331983524e+004  1.276406215706e-001
3.852000000000e+005 -1.657816153846e+004 1.000000000000e+005 1.165781615385e+005 7.510000000000e-001 2.490000000000e-001 2.023498589800e-001 7.041029776600e-013 -1.188188136176e+004 1.782282204263e+004  1.280681823423e-001
3.888000000000e+005 -1.641968461538e+004 1.000000000000e+005 1.164196846154e+005 7.510000000000e-001 2.490000000000e-001 2.023498589800e-001 7.041029776600e-013 -1.191594446776e+004 1.787391670163e+004  1.284353295926e-001
3.924000000000e+005 -1.626120769231e+004 1.000000000000e+005 1.162612076923e+005 7.510000000000e-001 2.490000000000e-001 2.023498589800e-001 7.041029776600e-013 -1.194982289034e+004 1.792473433548e+004  1.288004862430e-001
3.960000000000e+005 -1.610273076923e+004 1.000000000000e+005 1.161027307692e+005 7.510000000000e-001 2.490000000000e-001 2.023498589800e-001 7.041029776600e-013 -1.198369607773e+004 1.797554411659e+004  1.291655864665e-001
3.996000000000e+005 -1.594425384615e+004 1.000000000000e+005 1.159442538462e+005 7.510000000000e-001 2.490000000000e-001 2.023498589800e-001 7.041029776600e-013 -1.201756652714e+004 1.802634979070e+004  1.295306571787e-001
4.032000000000e+005 -1.578577692308e+004 1.000000000000e+005 1.157857769231e+005 7.510000000000e-001 2.490000000000e-001 2.023498589800e-001 7.041029776600e-013 -1.205143479746e+004 1.807715219624e+004  1.298957044041e-001
4.068000000000e+005 -1.562730000000e+004 1.000000000000e+005 1.156273000000e+005 7.510000000000e-001 2.490000000000e-001 2.023498589800e-001 7.041029776600e-013 -1.208529961806e+004 1.812794942709e+004  1.302607144461e-001
4.104000000000e+005 -1.557335000000e+004 1.000000000000e+005 1.155733500000e+005 7.510000000000e-001 2.490000000000e-001 2.023498589800e-001 7.041029776600e-013 -1.209752481731e+004 1.814628722596e+004  1.303924830608e-001
4.140000000000e+005 -1.551940000000e+004 1.000000000000e+005 1.155194000000e+005 7.510000000000e-001 2.490000000000e-001 2.023498589800e-001 7.041029776600e-013 -1.210906228577e+004 1.816359342867e+004  1.305168390084e-001
4.176000000000e+005 -1.546545000000e+004 1.000000000000e+005 1.154654500000e+005 7.510000000000e-001 2.490000000000e-001 2.023498589800e-001 7.041029776600e-013 -1.212058671733e+004 1.818088007600e+004  1.306410544383e-001
4.212000000000e+005 -1.541150000000e+004 1.000000000000e+005 1.154115000000e+005 7.510000000000e-001 2.490000000000e-001 2.023498589800e-001 7.041029776600e-013 -1.213211378653e+004 1.819817067979e+004  1.307652982979e-001
4.248000000000e+005 -1.535755000000e+004 1.000000000000e+005 1.153575500000e+005 7.510000000000e-001 2.490000000000e-001 2.023498589800e-001 7.041029776600e-013 -1.214364083451e+004 1.821546125175e+004  1.308895419287e-001
4.284000000000e+005 -1.530360000000e+004 1.000000000000e+005 1.153036000000e+005 7.510000000000e-001 2.490000000000e-001 2.023498589800e-001 7.041029776600e-013 -1.215516394314e+004 1.823274591471e+004  1.310137430997e-001
4.320000000000e+005 -1.529380000000e+004 1.000000000000e+005 1.152938000000e+005 7.510000000000e-001 2.490000000000e-001 2.023498589800e-001 7.041029776600e-013 -1.215754645430e+004 1.823631968142e+004  1.310394228605e-001
4.356000000000e+005 -1.528400000000e+004 1.000000000000e+005 1.152840000000e+005 7.510000000000e-001 2.490000000000e-001 2.023498589800e-001 7.041029776600e-013 -1.215964443113e+004 1.823946664668e+004  1.310620357846e-001
4.392000000000e+005 -1.527420000000e+004 1.000000000000e+005 1.152742000000e+005 7.510000000000e-001 2.490000000000e-001 2.023498589800e-001 7.041029776600e-013 -1.216173804011e+004 1.824260706015e+004  1.310846016298e-001
4.428000000000e+005 -1.526440000000e+004 1.000000000000e+005 1.152644000000e+005 7.510000000000e-001 2.490000000000e-001 2.023498589800e-001 7.041029776600e-013 -1.216383173744e+004 1.824574760616e+004  1.311071684275e-001
4.464000000000e+005 -9.363635000000e+003 1.000000000000e+005 1.093636350000e+005 7.510000000000e-001 2.490000000000e-001 2.023498589800e-001 7.041029776600e-013 -1.340929964007e+004 2.011394946010e+004  1.445313733660e-001
4.500000000000e+005 -7.958362500000e+003 1.000000000000e+005 1.079583625000e+005 7.510000000000e-001 2.490000000000e-001 2.023498589800e-001 7.041029776600e-013 -1.371886855997e+004 2.057830283996e+004  1.478680443590e-001
4.536000000000e+005 -7.649347500000e+003 1.000000000000e+005 1.076493475000e+005 7.510000000000e-001 2.490000000000e-001 2.023498589800e-001 7.041029776600e-013 -1.378696633850e+004 2.068044950775e+004  1.486020323910e-001
4.572000000000e+005 -7.328070000000e+003 1.000000000000e+005 1.073280700000e+005 7.510000000000e-001 2.490000000000e-001 2.023498589800e-001 7.041029776600e-013 -1.383771389455e+004 2.075657084182e+004  1.491490120370e-001
4.608000000000e+005 -6.994530000000e+003 1.000000000000e+005 1.069945300000e+005 7.510000000000e-001 2.490000000000e-001 2.023498589800e-001 7.041029776600e-013 -1.392586689223e+004 2.088880033834e+004  1.500991641078e-001
4.644000000000e+005 -6.660990000000e+003 1.000000000000e+005 1.066609900000e+005 7.510000000000e-001 2.490000000000e-001 2.023498589800e-001 7.041029776600e-013 -1.399709423767e+004 2.099564135650e+004  1.508668839988e-001
4.680000000000e+005 -6.327450000000e+003 1.000000000000e+005 1.063274500000e+005 7.510000000000e-001 2.490000000000e-001 2.023498589800e-001 7.041029776600e-013 -1.406802470390e+004 2.110203705585e+004  1.516314039942e-001
4.716000000000e+005 -6.304015000000e+003 1.000000000000e+005 1.063040150000e+005 7.510000000000e-001 2.490000000000e-001 2.023498589800e-001 7.041029776600e-013 -1.407373898629e+004 2.111060847944e+004  1.516929950618e-001
4.752000000000e+005 -6.280580000000e+003 1.000000000000e+005 1.062805800000e+005 7.510000000000e-001 2.490000000000e-001 2.023498589800e-001 7.041029776600e-013 -1.407874144735e+004 2.111811217102e+004  1.517469138038e-001