 TITLE = "Time curves in points"
 VARIABLES = "TIME "  "VELOCITY_Y1"  p_(1st_Invariant)  q_(2nd_Invariant)   Effective_Strain
 ZONE T="POINT=POINT1"
0.000000000000e+00 0.000000000000e+00 -0.000000000000e+00 0.000000000000e+00  0.000000000000e+00
3.600000000000e+03 7.561223116865e-12 4.018424884577e-02 6.027642575110e-02  5.166550825559e-07
7.200000000000e+03 -7.239510273547e-07 -2.624992196932e+02 3.937488295592e+02  3.374989967651e-03
1.080000000000e+04 -2.286142174182e-06 -6.887117083606e+02 1.033067562542e+03  8.854864821789e-03
1.440000000000e+04 -1.062971049572e-06 -7.269586512453e+02 1.090437976871e+03  9.346611230323e-03
1.800000000000e+04 -6.134520630698e-07 -7.649500150584e+02 1.147425022596e+03  9.835071622253e-03
2.160000000000e+04 -2.176898495892e-07 -7.608700409486e+02 1.141305061423e+03  9.782614812196e-03
2.520000000000e+04 -6.293037157233e-08 -7.567104506120e+02 1.135065675919e+03  9.729134365018e-03
2.880000000000e+04 5.897832780278e-08 -7.409900162977e+02 1.111485024452e+03  9.527014495299e-03
3.240000000000e+04 1.052826739529e-07 -7.252445993927e+02 1.087866899087e+03  9.324573420741e-03
3.600000000000e+04 -1.214218785449e-08 -7.352958040820e+02 1.102943706123e+03  9.453803195337e-03
3.960000000000e+04 -5.792817871478e-08 -7.453706895930e+02 1.118056034391e+03  9.583337437641e-03
4.320000000000e+04 -7.637643510471e-08 -7.554545744775e+02 1.133181861746e+03  9.712987386398e-03
4.680000000000e+04 -8.374224592258e-08 -7.655421470658e+02 1.148313220601e+03  9.842684748011e-03
5.040000000000e+04 -8.643588764453e-08 -7.756312536454e+02 1.163446880469e+03  9.972401832591e-03
5.400000000000e+04 -8.784253089151e-08 -7.857207937499e+02 1.178581190623e+03  1.010212449105e-02
5.760000000000e+04 -8.921320150329e-08 -7.958103314971e+02 1.193715497240e+03  1.023184711920e-02
6.120000000000e+04 -8.983866297896e-08 -8.059001395739e+02 1.208850209372e+03  1.036157322319e-02
6.480000000000e+04 -8.982805972646e-08 -8.159901420024e+02 1.223985213003e+03  1.049130182574e-02
6.840000000000e+04 -9.041746614228e-08 -8.260799440339e+02 1.239119916052e+03  1.062102785187e-02
7.200000000000e+04 -9.127455736642e-08 -8.361696620398e+02 1.254254493060e+03  1.075075279765e-02
7.560000000000e+04 -9.162419155905e-08 -8.462595501835e+02 1.269389325271e+03  1.088047993089e-02
7.920000000000e+04 -9.145019672538e-08 -8.563495943904e+02 1.284524391574e+03  1.101020907064e-02
8.280000000000e+04 -9.217610841611e-08 -8.664393659458e+02 1.299659048877e+03  1.113993470466e-02
8.640000000000e+04 -9.293362035154e-08 -8.765291199678e+02 1.314793679973e+03  1.126966011405e-02
9.000000000000e+04 -4.382899027051e-07 -9.478900198894e+02 1.421835029842e+03  1.218715739864e-02
9.360000000000e+04 -5.872471997567e-07 -1.019315805387e+03 1.528973708075e+03  1.310548892636e-02
9.720000000000e+04 -2.274201466701e-07 -1.017334688356e+03 1.526002032537e+03  1.308001742175e-02
1.008000000000e+05 -8.027882885055e-08 -1.015283289894e+03 1.522924934843e+03  1.305364229865e-02
1.044000000000e+05 -6.689920360555e-07 -1.124395947771e+03 1.686593921651e+03  1.445651932844e-02
1.080000000000e+05 -9.298706527200e-07 -1.233616910221e+03 1.850425365331e+03  1.586078884570e-02
1.116000000000e+05 -2.655106027736e-06 -1.594611247805e+03 2.391916871710e+03  2.050214461466e-02
1.152000000000e+05 -2.419285357320e-06 -1.796503448114e+03 2.694755172177e+03  2.309790147580e-02
1.188000000000e+05 -1.593768018354e-06 -1.893472586409e+03 2.840208879572e+03  2.434464753919e-02
1.224000000000e+05 -1.237019761500e-06 -1.990286868179e+03 2.985430302268e+03  2.558940259087e-02
1.260000000000e+05 -5.392315741628e-07 -1.999668652796e+03 2.999502979188e+03  2.571002553590e-02
1.296000000000e+05 -2.663724751131e-07 -2.008910053028e+03 3.013365079543e+03  2.582884353894e-02
1.332000000000e+05 -1.594930440972e-07 -2.018096628871e+03 3.027144943311e+03  2.594695665696e-02
1.368000000000e+05 -1.174075006733e-07 -2.027261778804e+03 3.040892668191e+03  2.606479429878e-02
1.404000000000e+05 -1.021760433299e-07 -2.036418071509e+03 3.054627107260e+03  2.618251806223e-02
1.440000000000e+05 -9.616446261288e-08 -2.045571332723e+03 3.068356999085e+03  2.630020284930e-02
1.476000000000e+05 -9.350132569669e-08 -2.054723467768e+03 3.082085201659e+03  2.641787315708e-02
1.512000000000e+05 -9.198020032063e-08 -2.063875220412e+03 3.095812830614e+03  2.653553854812e-02
1.548000000000e+05 -9.215574397305e-08 -2.073026431655e+03 3.109539647452e+03  2.665319697816e-02
1.584000000000e+05 -9.217402433572e-08 -2.082177681263e+03 3.123266521848e+03  2.677085590155e-02
1.620000000000e+05 -9.189054948678e-08 -2.091329036970e+03 3.136993555456e+03  2.688851618962e-02
1.656000000000e+05 -9.132517843501e-08 -2.100480484888e+03 3.150720727334e+03  2.700617766286e-02
1.692000000000e+05 -9.168373351910e-08 -2.109631621586e+03 3.164447432380e+03  2.712383513469e-02
1.728000000000e+05 -9.187579529624e-08 -2.118782825308e+03 3.178174237973e+03  2.724149346834e-02
1.764000000000e+05 -9.171284220969e-08 -2.127934137861e+03 3.191901206866e+03  2.735915320171e-02
1.800000000000e+05 -9.123382078346e-08 -2.137085562883e+03 3.205628344323e+03  2.747681437991e-02
1.836000000000e+05 -9.140429073803e-08 -2.146236761066e+03 3.219355141614e+03  2.759447264241e-02
1.872000000000e+05 -8.697351081288e-08 -2.154638232688e+03 3.231957349073e+03  2.770249156349e-02
1.908000000000e+05 -8.516011051827e-08 -2.163038824170e+03 3.244558236267e+03  2.781049916800e-02
1.944000000000e+05 -7.775094078983e-08 -2.170401979732e+03 3.255602969469e+03  2.790516830973e-02
1.980000000000e+05 -7.464429452609e-08 -2.177763729300e+03 3.266645593978e+03  2.799981937696e-02
2.016000000000e+05 -1.024314468885e-07 -2.189668828606e+03 3.284503242907e+03  2.815288493920e-02
2.052000000000e+05 -1.128423117779e-07 -2.201579680645e+03 3.302369520964e+03  2.830602446540e-02
2.088000000000e+05 -1.162109308570e-07 -2.213492842821e+03 3.320239264190e+03  2.845919369305e-02
2.124000000000e+05 -6.186869677556e-08 -2.216513860805e+03 3.324770791206e+03  2.849803535320e-02
2.160000000000e+05 -4.182864446982e-08 -2.219523537785e+03 3.329285306643e+03  2.853673119979e-02
2.196000000000e+05 -3.439865790441e-08 -2.222529064629e+03 3.333793596938e+03  2.857537368804e-02
2.232000000000e+05 -3.163995767141e-08 -2.225533037546e+03 3.338299556324e+03  2.861399619706e-02
2.268000000000e+05 -3.061307921203e-08 -2.228536426518e+03 3.342804639773e+03  2.865261119806e-02
2.304000000000e+05 -3.022303239705e-08 -2.231539624823e+03 3.347309437163e+03  2.869122374711e-02
2.340000000000e+05 -3.006192080537e-08 -2.234542731923e+03 3.351814097876e+03  2.872983512465e-02
2.376000000000e+05 -2.997831325038e-08 -2.237545838653e+03 3.356318757975e+03  2.876844649692e-02
2.412000000000e+05 -2.991651134297e-08 -2.240548917155e+03 3.360823375726e+03  2.880705750622e-02
2.448000000000e+05 -2.985645617625e-08 -2.243551993702e+03 3.365327990556e+03  2.884566849048e-02
2.484000000000e+05 -2.979128581870e-08 -2.246555066407e+03 3.369832599613e+03  2.888427942525e-02
2.520000000000e+05 -2.971898455964e-08 -2.249558156836e+03 3.374337235220e+03  2.892289058760e-02
2.556000000000e+05 -2.963927141647e-08 -2.252561253656e+03 3.378841880514e+03  2.896150183298e-02
2.592000000000e+05 -2.962957873807e-08 -2.255564306456e+03 3.383346459683e+03  2.900011251157e-02
2.628000000000e+05 -3.143056493105e-06 -2.742228627565e+03 4.113342941347e+03  3.525722521155e-02
2.664000000000e+05 -1.829506171010e-06 -2.853019702320e+03 4.279529553481e+03  3.668168188698e-02
2.700000000000e+05 -1.360232231843e-06 -2.963531879831e+03 4.445297819744e+03  3.810255274066e-02
2.736000000000e+05 -1.171477926314e-06 -3.070822812123e+03 4.606234218183e+03  3.948200758443e-02
2.772000000000e+05 -7.103120233810e-07 -3.118268019040e+03 4.677402028500e+03  4.009201738714e-02
2.808000000000e+05 -5.489626727838e-07 -3.165614176485e+03 4.748421264725e+03  4.070075369764e-02
2.844000000000e+05 -7.150630629967e-07 -3.246845016024e+03 4.870267524050e+03  4.174515020614e-02
2.880000000000e+05 -7.595018181510e-07 -3.328116058101e+03 4.992174087124e+03  4.279006360392e-02
2.916000000000e+05 -7.628740841522e-07 -3.409400655897e+03 5.114100983666e+03  4.383515128856e-02
2.952000000000e+05 -3.552016923097e-07 -3.427807300084e+03 5.141710950093e+03  4.407180814366e-02
2.988000000000e+05 -2.281207002951e-07 -3.446121267704e+03 5.169181901578e+03  4.430727344209e-02
3.024000000000e+05 -1.863719534182e-07 -3.464407031005e+03 5.196610546508e+03  4.454237611293e-02
3.060000000000e+05 -1.746284208246e-07 -3.482682892957e+03 5.224024339410e+03  4.477735148066e-02
3.096000000000e+05 -1.693466133238e-07 -3.500956616201e+03 5.251434924302e+03  4.501229935116e-02
3.132000000000e+05 -1.687636929218e-07 -3.519228789755e+03 5.278843184595e+03  4.524722729653e-02
3.168000000000e+05 -1.671478322014e-07 -3.537501298198e+03 5.306251947295e+03  4.548215954824e-02
3.204000000000e+05 -1.675266263075e-07 -3.555773155564e+03 5.333659733323e+03  4.571708342848e-02
3.240000000000e+05 -1.664150749891e-07 -3.574045497288e+03 5.361068245987e+03  4.595201353703e-02
3.276000000000e+05 -1.667563457919e-07 -3.592317359750e+03 5.388476039614e+03  4.618693748241e-02
3.312000000000e+05 -1.658600391446e-07 -3.610589630278e+03 5.415884445414e+03  4.642186667498e-02
3.348000000000e+05 -1.660424777132e-07 -3.628861551196e+03 5.443292326796e+03  4.665679137254e-02
3.384000000000e+05 -1.653503016635e-07 -3.647133759926e+03 5.470700639879e+03  4.689171977039e-02
3.420000000000e+05 -3.526201661808e-07 -3.694845914150e+03 5.542268871226e+03  4.750516175336e-02
3.456000000000e+05 -4.051052709203e-07 -3.742602610321e+03 5.613903915484e+03  4.811917641843e-02
3.492000000000e+05 -4.216930891041e-07 -3.790371155271e+03 5.685556732912e+03  4.873334342496e-02
3.528000000000e+05 -4.261937042910e-07 -3.838143692442e+03 5.757215538666e+03  4.934756175999e-02
3.564000000000e+05 -4.256375167771e-07 -3.885917897563e+03 5.828876846346e+03  4.996180154011e-02
3.600000000000e+05 -4.071524540627e-07 -3.931186023681e+03 5.896779035531e+03  5.054382030455e-02
3.636000000000e+05 -3.840516963601e-07 -3.973943650849e+03 5.960915476274e+03  5.109356122520e-02
3.672000000000e+05 -3.774574634113e-07 -4.016695839255e+03 6.025043758883e+03  5.164323221900e-02
3.708000000000e+05 -3.847617200868e-07 -4.060664848763e+03 6.090997273150e+03  5.220854805558e-02
3.744000000000e+05 -3.944942776566e-07 -4.105854488355e+03 6.158781732536e+03  5.278955770745e-02
3.780000000000e+05 -3.962250312803e-07 -4.151046772796e+03 6.226570159199e+03  5.337060136456e-02
3.816000000000e+05 -3.952418222983e-07 -4.196239952278e+03 6.294359928416e+03  5.395165652928e-02
3.852000000000e+05 -3.578432529632e-07 -4.235828409986e+03 6.353742614991e+03  5.446065098564e-02
3.888000000000e+05 -3.117936054324e-07 -4.269802965183e+03 6.404704447782e+03  5.489746669527e-02
3.924000000000e+05 -2.998660533915e-07 -4.303766245513e+03 6.455649368268e+03  5.533413744230e-02
3.960000000000e+05 -2.966831262981e-07 -4.337726648177e+03 6.506589972267e+03  5.577077119086e-02
3.996000000000e+05 -2.955224884407e-07 -4.371686368078e+03 6.557529552102e+03  5.620739616087e-02
4.032000000000e+05 -2.944840452979e-07 -4.405646047510e+03 6.608469071274e+03  5.664402061092e-02
4.068000000000e+05 -2.925094947538e-07 -4.439606038818e+03 6.659409058227e+03  5.708064907051e-02
4.104000000000e+05 -1.478999072540e-07 -4.451214526375e+03 6.676821789608e+03  5.722990105378e-02
4.140000000000e+05 -1.112809767946e-07 -4.462787340087e+03 6.694181010112e+03  5.737869437238e-02
4.176000000000e+05 -1.023871920670e-07 -4.474350993380e+03 6.711526490064e+03  5.752736991484e-02
4.212000000000e+05 -1.004577018320e-07 -4.485912340451e+03 6.728868510670e+03  5.767601580574e-02
4.248000000000e+05 -9.959535366589e-08 -4.497473349643e+03 6.746210024463e+03  5.782465735254e-02
4.284000000000e+05 -9.867838229448e-08 -4.509034357106e+03 6.763551535661e+03  5.797329887710e-02
4.320000000000e+05 -3.774019185049e-08 -4.511154479820e+03 6.766731719727e+03  5.800055759766e-02
4.356000000000e+05 -2.289544083963e-08 -4.513259389321e+03 6.769889083993e+03  5.802762071994e-02
4.392000000000e+05 -1.926421564204e-08 -4.515360592757e+03 6.773040889213e+03  5.805463619326e-02
4.428000000000e+05 -1.837863611711e-08 -4.517460883675e+03 6.776191325482e+03  5.808163993271e-02
4.464000000000e+05 -7.889763313149e-06 -5.779310159499e+03 8.668965239300e+03  7.430541633686e-02
4.500000000000e+05 -2.925532418657e-06 -6.082079949774e+03 9.123119924635e+03  7.819817078258e-02
4.536000000000e+05 -7.620277082187e-07 -6.149012186191e+03 9.223518279284e+03  7.905872810815e-02
4.572000000000e+05 -4.916072865149e-07 -6.217946695321e+03 9.326920042985e+03  7.994502893987e-02
4.608000000000e+05 -4.686530888638e-07 -6.289427127492e+03 9.434140691237e+03  8.086406306774e-02
4.644000000000e+05 -4.533487242088e-07 -6.360905046092e+03 9.541357569148e+03  8.178306487841e-02
4.680000000000e+05 -4.382422652162e-07 -6.432382884155e+03 9.648574326229e+03  8.270206565339e-02
4.716000000000e+05 -7.330797608277e-08 -6.437525237266e+03 9.656287855903e+03  8.276818162202e-02
4.752000000000e+05 -3.484904614135e-08 -6.442559733363e+03 9.663839600044e+03  8.283291085752e-02
4.788000000000e+05 -3.052011823938e-08 -6.447582943900e+03 9.671374415835e+03  8.289749499287e-02
4.824000000000e+05 -3.016137875341e-08 -6.452604848253e+03 9.678907272375e+03  8.296206233464e-02
4.860000000000e+05 -3.011650038343e-08 -6.457626653856e+03 9.686439980783e+03  8.302662840671e-02
4.896000000000e+05 -3.006144836674e-08 -6.462648462699e+03 9.693972694049e+03  8.309119452042e-02
4.932000000000e+05 -2.997843847475e-08 -6.467670258651e+03 9.701505387972e+03  8.315576046833e-02
4.968000000000e+05 -2.987253192137e-08 -6.472692082952e+03 9.709038124427e+03  8.322032678080e-02
5.004000000000e+05 -2.974855281546e-08 -6.477713921599e+03 9.716570882400e+03  8.328489327772e-02
5.040000000000e+05 -2.960959243448e-08 -6.482735748787e+03 9.724103623179e+03  8.334945962725e-02
5.076000000000e+05 -2.949828080833e-08 -6.487757568044e+03 9.731636352068e+03  8.341402587487e-02
5.112000000000e+05 -2.961111198444e-08 -6.492779320025e+03 9.739168980037e+03  8.347859125746e-02
5.148000000000e+05 -2.960522858026e-08 -6.497801101300e+03 9.746701651953e+03  8.354315701674e-02
5.184000000000e+05 -2.955104237289e-08 -6.502822907239e+03 9.754234360861e+03  8.360772309309e-02
5.220000000000e+05 -2.946725843072e-08 -6.507844722680e+03 9.761767084001e+03  8.367228929144e-02
5.256000000000e+05 -2.936179623130e-08 -6.512866545227e+03 9.769299817838e+03  8.373685558147e-02
5.292000000000e+05 -2.923926543707e-08 -6.517888363559e+03 9.776832545335e+03  8.380142181716e-02
5.328000000000e+05 -2.910246227070e-08 -6.522910196942e+03 9.784365295416e+03  8.386598824642e-02
5.364000000000e+05 -3.364688681297e-08 -6.528794694978e+03 9.793192042467e+03  8.394164607829e-02
5.400000000000e+05 -3.412943113589e-08 -6.534680540028e+03 9.802020810048e+03  8.401732122898e-02
5.436000000000e+05 -3.412449127452e-08 -6.540566544167e+03 9.810849816269e+03  8.409299842517e-02
5.472000000000e+05 -3.402683305681e-08 -6.546452568610e+03 9.819678852919e+03  8.416867588216e-02
5.508000000000e+05 -3.388925446595e-08 -6.552338617833e+03 9.828507926749e+03  8.424435365785e-02
5.544000000000e+05 -1.925640480724e-08 -6.555426591212e+03 9.833139886778e+03  8.428405617238e-02
5.580000000000e+05 -1.780811743273e-08 -6.558510216033e+03 9.837765324047e+03  8.432370277755e-02
5.616000000000e+05 -1.761622484773e-08 -6.561593420938e+03 9.842390131373e+03  8.436334398320e-02
5.652000000000e+05 -1.754842034141e-08 -6.564676588016e+03 9.847014882021e+03  8.440298470304e-02
5.688000000000e+05 -1.762083644576e-08 -6.567759708051e+03 9.851639562099e+03  8.444262481799e-02
5.724000000000e+05 -1.764335700577e-08 -6.570842837964e+03 9.856264256947e+03  8.448226505955e-02
5.760000000000e+05 -1.764448709117e-08 -6.573925983678e+03 9.860888975791e+03  8.452190550678e-02
5.796000000000e+05 -1.763347236571e-08 -6.577009128805e+03 9.865513693211e+03  8.456154594181e-02
5.832000000000e+05 -1.761397302411e-08 -6.580092279501e+03 9.870138419250e+03  8.460118645071e-02
5.868000000000e+05 -1.758785934985e-08 -6.583175429738e+03 9.874763144597e+03  8.464082695369e-02
5.904000000000e+05 -1.755627465828e-08 -6.586258582872e+03 9.879387874351e+03  8.468046749444e-02
5.940000000000e+05 -1.752005399725e-08 -6.589341742252e+03 9.884012613403e+03  8.472010811488e-02
5.976000000000e+05 -1.747978296518e-08 -6.592424900201e+03 9.888637350412e+03  8.475974871781e-02
6.012000000000e+05 -1.743588262631e-08 -6.595508046378e+03 9.893262069567e+03  8.479938916772e-02
6.048000000000e+05 -1.738872597661e-08 -6.598591205584e+03 9.897886808382e+03  8.483902978613e-02
6.084000000000e+05 -2.676499478381e-08 -6.603527937828e+03 9.905291906726e+03  8.490250205765e-02
6.120000000000e+05 -2.778226726417e-08 -6.608467422961e+03 9.912701134438e+03  8.496600972375e-02
6.156000000000e+05 -2.788471760357e-08 -6.613407212867e+03 9.920110819300e+03  8.502952130829e-02
6.192000000000e+05 -2.785971825800e-08 -6.618347042120e+03 9.927520563180e+03  8.509303339868e-02
6.228000000000e+05 -5.078945485875e-09 -6.618845275906e+03 9.928267913837e+03  8.509943926146e-02
6.264000000000e+05 -2.989846173885e-09 -6.619336690610e+03 9.929005035927e+03  8.510575745080e-02
6.300000000000e+05 -2.786587721520e-09 -6.619827458651e+03 9.929741187974e+03  8.511206732549e-02
6.336000000000e+05 -2.766072908373e-09 -6.620318183408e+03 9.930477275047e+03  8.511837664326e-02
6.372000000000e+05 -2.763468987711e-09 -6.620808900436e+03 9.931213350665e+03  8.512468586284e-02
6.408000000000e+05 -2.762606484497e-09 -6.621299617673e+03 9.931949426513e+03  8.513099508440e-02
6.444000000000e+05 -1.420637707491e-08 -6.624028517771e+03 9.936042776643e+03  8.516608094265e-02
6.480000000000e+05 -1.522824521439e-08 -6.626760855509e+03 9.940141283274e+03  8.520121099949e-02
6.516000000000e+05 -1.530055869235e-08 -6.629493509324e+03 9.944240263987e+03  8.523634511988e-02
6.552000000000e+05 -1.527885288531e-08 -6.632226198484e+03 9.948339297724e+03  8.527147969478e-02
6.588000000000e+05 -1.829494357225e-06 -7.010012573464e+03 1.051501886020e+04  9.012873308741e-02
6.624000000000e+05 -1.275396648222e-06 -7.262452762966e+03 1.089367914445e+04  9.337439266672e-02
6.660000000000e+05 -5.434421656387e-07 -7.367801708214e+03 1.105170256232e+04  9.472887910560e-02
6.696000000000e+05 -4.972293587801e-07 -7.472924119932e+03 1.120938617990e+04  9.608045297054e-02
6.732000000000e+05 -2.542017829750e-07 -7.525557979195e+03 1.128833696879e+04  9.675717401819e-02
6.768000000000e+05 -2.418150440191e-07 -7.578115648116e+03 1.136717347217e+04  9.743291547576e-02
6.804000000000e+05 -2.399883191806e-07 -7.630669816030e+03 1.144600472404e+04  9.810861192036e-02
6.840000000000e+05 -2.366585570240e-07 -7.683224491864e+03 1.152483673779e+04  9.878431489537e-02
6.876000000000e+05 -7.665219798678e-08 -7.699043421328e+03 1.154856513203e+04  9.898770113169e-02
6.912000000000e+05 -7.098485407415e-08 -7.714811360391e+03 1.157221704059e+04  9.919043177647e-02
6.948000000000e+05 -7.010566938531e-08 -7.730577731271e+03 1.159586659692e+04  9.939314225928e-02
6.984000000000e+05 -7.032094017465e-08 -7.746343728798e+03 1.161951559320e+04  9.959584794168e-02
7.020000000000e+05 -3.235712262268e-08 -7.750202775814e+03 1.162530416372e+04  9.964546426047e-02
7.056000000000e+05 -3.104264583032e-08 -7.751370635966e+03 1.162705595405e+04  9.966047960614e-02
7.092000000000e+05 -3.080896179596e-08 -7.752538495531e+03 1.162880774330e+04  9.967549494255e-02
7.128000000000e+05 -3.094235242071e-08 -7.753706348205e+03 1.163055952231e+04  9.969051019126e-02
7.164000000000e+05 -3.092242943254e-08 -7.754874207654e+03 1.163231131148e+04  9.970552552700e-02
7.200000000000e+05 -3.083066643745e-08 -7.756042059512e+03 1.163406308927e+04  9.972054076518e-02
