VARIABLES  = "X","Y","Z", "PRESSURE1", "PRESSURE2", "PRESSURE_W", "SATURATION1", SATURATION2, "n", "Ki"
ZONE T="0.000000000000e+00s", N=102, E=50, F=FEPOINT, ET=QUADRILATERAL
STRANDID=1, SOLUTIONTIME=0.000000000000e+00
0.000000000000e+00 0.000000000000e+00 0.000000000000e+00 -3.634610000000e+04 1.000000000000e+05 1.363461000000e+05 7.510000000000e-01 2.490000000000e-01 3.888294590960e-01 1.000000000000e-11 
5.000000000000e-02 0.000000000000e+00 0.000000000000e+00 -3.634610000000e+04 1.000000000000e+05 1.363461000000e+05 7.510000000000e-01 2.490000000000e-01 3.888294590960e-01 1.000000000000e-11 
5.000000000000e-02 0.000000000000e+00 7.400000000000e-02 -3.562016000000e+04 9.999909983440e+04 1.356192598344e+05 7.510000000000e-01 2.490000000000e-01 3.888294590960e-01 1.000000000000e-11 
0.000000000000e+00 0.000000000000e+00 7.400000000000e-02 -3.562016000000e+04 9.999909983440e+04 1.356192598344e+05 7.510000000000e-01 2.490000000000e-01 3.888294590960e-01 1.000000000000e-11 
5.000000000000e-02 0.000000000000e+00 1.480000000000e-01 -3.489422000000e+04 9.999819966880e+04 1.348924196688e+05 7.510000000000e-01 2.490000000000e-01 3.888294590960e-01 1.000000000000e-11 
0.000000000000e+00 0.000000000000e+00 1.480000000000e-01 -3.489422000000e+04 9.999819966880e+04 1.348924196688e+05 7.510000000000e-01 2.490000000000e-01 3.888294590960e-01 1.000000000000e-11 
5.000000000000e-02 0.000000000000e+00 2.220000000000e-01 -3.416828000000e+04 9.999729950320e+04 1.341655795032e+05 7.510000000000e-01 2.490000000000e-01 3.888294590960e-01 1.000000000000e-11 
0.000000000000e+00 0.000000000000e+00 2.220000000000e-01 -3.416828000000e+04 9.999729950320e+04 1.341655795032e+05 7.510000000000e-01 2.490000000000e-01 3.888294590960e-01 1.000000000000e-11 
5.000000000000e-02 0.000000000000e+00 2.960000000000e-01 -3.344234000000e+04 9.999639933760e+04 1.334387393376e+05 7.510000000000e-01 2.490000000000e-01 3.888294590960e-01 1.000000000000e-11 
0.000000000000e+00 0.000000000000e+00 2.960000000000e-01 -3.344234000000e+04 9.999639933760e+04 1.334387393376e+05 7.510000000000e-01 2.490000000000e-01 3.888294590960e-01 1.000000000000e-11 
5.000000000000e-02 0.000000000000e+00 3.700000000000e-01 -3.271640000000e+04 9.999549917200e+04 1.327118991720e+05 7.510000000000e-01 2.490000000000e-01 3.888294590960e-01 1.000000000000e-11 
0.000000000000e+00 0.000000000000e+00 3.700000000000e-01 -3.271640000000e+04 9.999549917200e+04 1.327118991720e+05 7.510000000000e-01 2.490000000000e-01 3.888294590960e-01 1.000000000000e-11 
5.000000000000e-02 0.000000000000e+00 4.440000000000e-01 -3.199046000000e+04 9.999459900640e+04 1.319850590064e+05 7.510000000000e-01 2.490000000000e-01 3.888294590960e-01 1.000000000000e-11 
0.000000000000e+00 0.000000000000e+00 4.440000000000e-01 -3.199046000000e+04 9.999459900640e+04 1.319850590064e+05 7.510000000000e-01 2.490000000000e-01 3.888294590960e-01 1.000000000000e-11 
5.000000000000e-02 0.000000000000e+00 5.180000000000e-01 -3.126452000000e+04 9.999369884080e+04 1.312582188408e+05 7.510000000000e-01 2.490000000000e-01 3.888294590960e-01 1.000000000000e-11 
0.000000000000e+00 0.000000000000e+00 5.180000000000e-01 -3.126452000000e+04 9.999369884080e+04 1.312582188408e+05 7.510000000000e-01 2.490000000000e-01 3.888294590960e-01 1.000000000000e-11 
5.000000000000e-02 0.000000000000e+00 5.920000000000e-01 -3.053858000000e+04 9.999279867520e+04 1.305313786752e+05 7.510000000000e-01 2.490000000000e-01 3.888294590960e-01 1.000000000000e-11 
0.000000000000e+00 0.000000000000e+00 5.920000000000e-01 -3.053858000000e+04 9.999279867520e+04 1.305313786752e+05 7.510000000000e-01 2.490000000000e-01 3.888294590960e-01 1.000000000000e-11 
5.000000000000e-02 0.000000000000e+00 6.660000000000e-01 -2.981264000000e+04 9.999189850960e+04 1.298045385096e+05 7.510000000000e-01 2.490000000000e-01 3.888294590960e-01 1.000000000000e-11 
0.000000000000e+00 0.000000000000e+00 6.660000000000e-01 -2.981264000000e+04 9.999189850960e+04 1.298045385096e+05 7.510000000000e-01 2.490000000000e-01 3.888294590960e-01 1.000000000000e-11 
5.000000000000e-02 0.000000000000e+00 7.400000000000e-01 -2.908670000000e+04 9.999099834400e+04 1.290776983440e+05 7.510000000000e-01 2.490000000000e-01 3.632694665890e-01 1.000000000000e-11 
0.000000000000e+00 0.000000000000e+00 7.400000000000e-01 -2.908670000000e+04 9.999099834400e+04 1.290776983440e+05 7.510000000000e-01 2.490000000000e-01 3.632694665890e-01 1.000000000000e-11 
5.000000000000e-02 0.000000000000e+00 8.140000000000e-01 -2.836076000000e+04 9.999009817840e+04 1.283508581784e+05 7.510000000000e-01 2.490000000000e-01 3.632694665890e-01 1.000000000000e-11 
0.000000000000e+00 0.000000000000e+00 8.140000000000e-01 -2.836076000000e+04 9.999009817840e+04 1.283508581784e+05 7.510000000000e-01 2.490000000000e-01 3.632694665890e-01 1.000000000000e-11 
5.000000000000e-02 0.000000000000e+00 8.880000000000e-01 -2.763482000000e+04 9.998919801280e+04 1.276240180128e+05 7.510000000000e-01 2.490000000000e-01 3.632694665890e-01 1.000000000000e-11 
0.000000000000e+00 0.000000000000e+00 8.880000000000e-01 -2.763482000000e+04 9.998919801280e+04 1.276240180128e+05 7.510000000000e-01 2.490000000000e-01 3.632694665890e-01 1.000000000000e-11 
5.000000000000e-02 0.000000000000e+00 9.620000000000e-01 -2.690888000000e+04 9.998829784720e+04 1.268971778472e+05 7.510000000000e-01 2.490000000000e-01 3.632694665890e-01 1.000000000000e-11 
0.000000000000e+00 0.000000000000e+00 9.620000000000e-01 -2.690888000000e+04 9.998829784720e+04 1.268971778472e+05 7.510000000000e-01 2.490000000000e-01 3.632694665890e-01 1.000000000000e-11 
5.000000000000e-02 0.000000000000e+00 1.036000000000e+00 -2.618294000000e+04 9.998739768160e+04 1.261703376816e+05 7.510000000000e-01 2.490000000000e-01 3.632694665890e-01 1.000000000000e-11 
0.000000000000e+00 0.000000000000e+00 1.036000000000e+00 -2.618294000000e+04 9.998739768160e+04 1.261703376816e+05 7.510000000000e-01 2.490000000000e-01 3.632694665890e-01 1.000000000000e-11 
5.000000000000e-02 0.000000000000e+00 1.110000000000e+00 -2.545700000000e+04 9.998649751600e+04 1.254434975160e+05 7.510000000000e-01 2.490000000000e-01 3.632694665890e-01 1.000000000000e-11 
0.000000000000e+00 0.000000000000e+00 1.110000000000e+00 -2.545700000000e+04 9.998649751600e+04 1.254434975160e+05 7.510000000000e-01 2.490000000000e-01 3.632694665890e-01 1.000000000000e-11 
5.000000000000e-02 0.000000000000e+00 1.184000000000e+00 -2.473106000000e+04 9.998559735040e+04 1.247166573504e+05 7.510000000000e-01 2.490000000000e-01 3.632694665890e-01 1.000000000000e-11 
0.000000000000e+00 0.000000000000e+00 1.184000000000e+00 -2.473106000000e+04 9.998559735040e+04 1.247166573504e+05 7.510000000000e-01 2.490000000000e-01 3.632694665890e-01 1.000000000000e-11 
5.000000000000e-02 0.000000000000e+00 1.258000000000e+00 -2.400512000000e+04 9.998469718480e+04 1.239898171848e+05 7.510000000000e-01 2.490000000000e-01 3.632694665890e-01 1.000000000000e-11 
0.000000000000e+00 0.000000000000e+00 1.258000000000e+00 -2.400512000000e+04 9.998469718480e+04 1.239898171848e+05 7.510000000000e-01 2.490000000000e-01 3.632694665890e-01 1.000000000000e-11 
5.000000000000e-02 0.000000000000e+00 1.332000000000e+00 -2.327918000000e+04 9.998379701920e+04 1.232629770192e+05 7.510000000000e-01 2.490000000000e-01 3.632694665890e-01 1.000000000000e-11 
0.000000000000e+00 0.000000000000e+00 1.332000000000e+00 -2.327918000000e+04 9.998379701920e+04 1.232629770192e+05 7.510000000000e-01 2.490000000000e-01 3.632694665890e-01 1.000000000000e-11 
5.000000000000e-02 0.000000000000e+00 1.406000000000e+00 -2.255324000000e+04 9.998289685360e+04 1.225361368536e+05 7.510000000000e-01 2.490000000000e-01 3.632694665890e-01 1.000000000000e-11 
0.000000000000e+00 0.000000000000e+00 1.406000000000e+00 -2.255324000000e+04 9.998289685360e+04 1.225361368536e+05 7.510000000000e-01 2.490000000000e-01 3.632694665890e-01 1.000000000000e-11 
5.000000000000e-02 0.000000000000e+00 1.480000000000e+00 -2.182730000000e+04 9.998199668800e+04 1.218092966880e+05 7.510000000000e-01 2.490000000000e-01 5.254848356160e-01 1.000000000000e-11 
0.000000000000e+00 0.000000000000e+00 1.480000000000e+00 -2.182730000000e+04 9.998199668800e+04 1.218092966880e+05 7.510000000000e-01 2.490000000000e-01 5.254848356160e-01 1.000000000000e-11 
5.000000000000e-02 0.000000000000e+00 1.554000000000e+00 -2.110136000000e+04 9.998109652240e+04 1.210824565224e+05 7.510000000000e-01 2.490000000000e-01 5.254848356160e-01 1.000000000000e-11 
0.000000000000e+00 0.000000000000e+00 1.554000000000e+00 -2.110136000000e+04 9.998109652240e+04 1.210824565224e+05 7.510000000000e-01 2.490000000000e-01 5.254848356160e-01 1.000000000000e-11 
5.000000000000e-02 0.000000000000e+00 1.628000000000e+00 -2.037542000000e+04 9.998019635680e+04 1.203556163568e+05 7.510000000000e-01 2.490000000000e-01 5.254848356160e-01 1.000000000000e-11 
0.000000000000e+00 0.000000000000e+00 1.628000000000e+00 -2.037542000000e+04 9.998019635680e+04 1.203556163568e+05 7.510000000000e-01 2.490000000000e-01 5.254848356160e-01 1.000000000000e-11 
5.000000000000e-02 0.000000000000e+00 1.702000000000e+00 -1.964948000000e+04 9.997929619120e+04 1.196287761912e+05 7.510000000000e-01 2.490000000000e-01 5.254848356160e-01 1.000000000000e-11 
0.000000000000e+00 0.000000000000e+00 1.702000000000e+00 -1.964948000000e+04 9.997929619120e+04 1.196287761912e+05 7.510000000000e-01 2.490000000000e-01 5.254848356160e-01 1.000000000000e-11 
5.000000000000e-02 0.000000000000e+00 1.776000000000e+00 -1.892354000000e+04 9.997839602560e+04 1.189019360256e+05 7.510000000000e-01 2.490000000000e-01 5.254848356160e-01 1.000000000000e-11 
0.000000000000e+00 0.000000000000e+00 1.776000000000e+00 -1.892354000000e+04 9.997839602560e+04 1.189019360256e+05 7.510000000000e-01 2.490000000000e-01 5.254848356160e-01 1.000000000000e-11 
5.000000000000e-02 0.000000000000e+00 1.850000000000e+00 -1.819760000000e+04 9.997749586000e+04 1.181750958600e+05 7.510000000000e-01 2.490000000000e-01 5.254848356160e-01 1.000000000000e-11 
0.000000000000e+00 0.000000000000e+00 1.850000000000e+00 -1.819760000000e+04 9.997749586000e+04 1.181750958600e+05 7.510000000000e-01 2.490000000000e-01 5.254848356160e-01 1.000000000000e-11 
5.000000000000e-02 0.000000000000e+00 1.924000000000e+00 -1.747166000000e+04 9.997659569440e+04 1.174482556944e+05 7.510000000000e-01 2.490000000000e-01 5.254848356160e-01 1.000000000000e-11 
0.000000000000e+00 0.000000000000e+00 1.924000000000e+00 -1.747166000000e+04 9.997659569440e+04 1.174482556944e+05 7.510000000000e-01 2.490000000000e-01 5.254848356160e-01 1.000000000000e-11 
5.000000000000e-02 0.000000000000e+00 1.998000000000e+00 -1.674572000000e+04 9.997569552880e+04 1.167214155288e+05 7.510000000000e-01 2.490000000000e-01 5.254848356160e-01 1.000000000000e-11 
0.000000000000e+00 0.000000000000e+00 1.998000000000e+00 -1.674572000000e+04 9.997569552880e+04 1.167214155288e+05 7.510000000000e-01 2.490000000000e-01 5.254848356160e-01 1.000000000000e-11 
5.000000000000e-02 0.000000000000e+00 2.072000000000e+00 -1.601978000000e+04 9.997479536320e+04 1.159945753632e+05 7.510000000000e-01 2.490000000000e-01 5.254848356160e-01 1.000000000000e-11 
0.000000000000e+00 0.000000000000e+00 2.072000000000e+00 -1.601978000000e+04 9.997479536320e+04 1.159945753632e+05 7.510000000000e-01 2.490000000000e-01 5.254848356160e-01 1.000000000000e-11 
5.000000000000e-02 0.000000000000e+00 2.146000000000e+00 -1.529384000000e+04 9.997389519760e+04 1.152677351976e+05 7.510000000000e-01 2.490000000000e-01 5.254848356160e-01 1.000000000000e-11 
0.000000000000e+00 0.000000000000e+00 2.146000000000e+00 -1.529384000000e+04 9.997389519760e+04 1.152677351976e+05 7.510000000000e-01 2.490000000000e-01 5.254848356160e-01 1.000000000000e-11 
5.000000000000e-02 0.000000000000e+00 2.220000000000e+00 -1.456790000000e+04 9.997299503200e+04 1.145408950320e+05 7.510000000000e-01 2.490000000000e-01 5.870772593210e-01 1.000000000000e-11 
0.000000000000e+00 0.000000000000e+00 2.220000000000e+00 -1.456790000000e+04 9.997299503200e+04 1.145408950320e+05 7.510000000000e-01 2.490000000000e-01 5.870772593210e-01 1.000000000000e-11 
5.000000000000e-02 0.000000000000e+00 2.294000000000e+00 -1.384196000000e+04 9.997209486640e+04 1.138140548664e+05 7.510000000000e-01 2.490000000000e-01 5.870772593210e-01 1.000000000000e-11 
0.000000000000e+00 0.000000000000e+00 2.294000000000e+00 -1.384196000000e+04 9.997209486640e+04 1.138140548664e+05 7.510000000000e-01 2.490000000000e-01 5.870772593210e-01 1.000000000000e-11 
5.000000000000e-02 0.000000000000e+00 2.368000000000e+00 -1.311602000000e+04 9.997119470080e+04 1.130872147008e+05 7.510000000000e-01 2.490000000000e-01 5.870772593210e-01 1.000000000000e-11 
0.000000000000e+00 0.000000000000e+00 2.368000000000e+00 -1.311602000000e+04 9.997119470080e+04 1.130872147008e+05 7.510000000000e-01 2.490000000000e-01 5.870772593210e-01 1.000000000000e-11 
5.000000000000e-02 0.000000000000e+00 2.442000000000e+00 -1.239008000000e+04 9.997029453520e+04 1.123603745352e+05 7.510000000000e-01 2.490000000000e-01 5.870772593210e-01 1.000000000000e-11 
0.000000000000e+00 0.000000000000e+00 2.442000000000e+00 -1.239008000000e+04 9.997029453520e+04 1.123603745352e+05 7.510000000000e-01 2.490000000000e-01 5.870772593210e-01 1.000000000000e-11 
5.000000000000e-02 0.000000000000e+00 2.516000000000e+00 -1.166414000000e+04 9.996939436960e+04 1.116335343696e+05 7.510000000000e-01 2.490000000000e-01 5.870772593210e-01 1.000000000000e-11 
0.000000000000e+00 0.000000000000e+00 2.516000000000e+00 -1.166414000000e+04 9.996939436960e+04 1.116335343696e+05 7.510000000000e-01 2.490000000000e-01 5.870772593210e-01 1.000000000000e-11 
5.000000000000e-02 0.000000000000e+00 2.590000000000e+00 -1.093820000000e+04 9.996849420400e+04 1.109066942040e+05 7.510000000000e-01 2.490000000000e-01 5.870772593210e-01 1.000000000000e-11 
0.000000000000e+00 0.000000000000e+00 2.590000000000e+00 -1.093820000000e+04 9.996849420400e+04 1.109066942040e+05 7.510000000000e-01 2.490000000000e-01 5.870772593210e-01 1.000000000000e-11 
5.000000000000e-02 0.000000000000e+00 2.664000000000e+00 -1.021226000000e+04 9.996759403840e+04 1.101798540384e+05 7.510000000000e-01 2.490000000000e-01 5.870772593210e-01 1.000000000000e-11 
0.000000000000e+00 0.000000000000e+00 2.664000000000e+00 -1.021226000000e+04 9.996759403840e+04 1.101798540384e+05 7.510000000000e-01 2.490000000000e-01 5.870772593210e-01 1.000000000000e-11 
5.000000000000e-02 0.000000000000e+00 2.738000000000e+00 -9.486320000000e+03 9.996669387280e+04 1.094530138728e+05 7.510000000000e-01 2.490000000000e-01 5.870772593210e-01 1.000000000000e-11 
0.000000000000e+00 0.000000000000e+00 2.738000000000e+00 -9.486320000000e+03 9.996669387280e+04 1.094530138728e+05 7.510000000000e-01 2.490000000000e-01 5.870772593210e-01 1.000000000000e-11 
5.000000000000e-02 0.000000000000e+00 2.812000000000e+00 -8.760380000000e+03 9.996579370720e+04 1.087261737072e+05 7.510000000000e-01 2.490000000000e-01 5.870772593210e-01 1.000000000000e-11 
0.000000000000e+00 0.000000000000e+00 2.812000000000e+00 -8.760380000000e+03 9.996579370720e+04 1.087261737072e+05 7.510000000000e-01 2.490000000000e-01 5.870772593210e-01 1.000000000000e-11 
5.000000000000e-02 0.000000000000e+00 2.886000000000e+00 -8.034440000000e+03 9.996489354160e+04 1.079993335416e+05 7.510000000000e-01 2.490000000000e-01 5.870772593210e-01 1.000000000000e-11 
0.000000000000e+00 0.000000000000e+00 2.886000000000e+00 -8.034440000000e+03 9.996489354160e+04 1.079993335416e+05 7.510000000000e-01 2.490000000000e-01 5.870772593210e-01 1.000000000000e-11 
5.000000000000e-02 0.000000000000e+00 2.960000000000e+00 -7.308500000000e+03 9.996399337600e+04 1.072724933760e+05 7.510000000000e-01 2.490000000000e-01 8.188811844390e-01 1.000000000000e-11 
0.000000000000e+00 0.000000000000e+00 2.960000000000e+00 -7.308500000000e+03 9.996399337600e+04 1.072724933760e+05 7.510000000000e-01 2.490000000000e-01 8.188811844390e-01 1.000000000000e-11 
5.000000000000e-02 0.000000000000e+00 3.034000000000e+00 -6.582560000000e+03 9.996309321040e+04 1.065456532104e+05 7.510000000000e-01 2.490000000000e-01 8.188811844390e-01 1.000000000000e-11 
0.000000000000e+00 0.000000000000e+00 3.034000000000e+00 -6.582560000000e+03 9.996309321040e+04 1.065456532104e+05 7.510000000000e-01 2.490000000000e-01 8.188811844390e-01 1.000000000000e-11 
5.000000000000e-02 0.000000000000e+00 3.108000000000e+00 -5.856620000000e+03 9.996219304480e+04 1.058188130448e+05 7.510000000000e-01 2.490000000000e-01 8.188811844390e-01 1.000000000000e-11 
0.000000000000e+00 0.000000000000e+00 3.108000000000e+00 -5.856620000000e+03 9.996219304480e+04 1.058188130448e+05 7.510000000000e-01 2.490000000000e-01 8.188811844390e-01 1.000000000000e-11 
5.000000000000e-02 0.000000000000e+00 3.182000000000e+00 -5.130680000000e+03 9.996129287920e+04 1.050919728792e+05 7.510000000000e-01 2.490000000000e-01 8.188811844390e-01 1.000000000000e-11 
0.000000000000e+00 0.000000000000e+00 3.182000000000e+00 -5.130680000000e+03 9.996129287920e+04 1.050919728792e+05 7.510000000000e-01 2.490000000000e-01 8.188811844390e-01 1.000000000000e-11 
5.000000000000e-02 0.000000000000e+00 3.256000000000e+00 -4.404740000000e+03 9.996039271360e+04 1.043651327136e+05 7.510000000000e-01 2.490000000000e-01 8.188811844390e-01 1.000000000000e-11 
0.000000000000e+00 0.000000000000e+00 3.256000000000e+00 -4.404740000000e+03 9.996039271360e+04 1.043651327136e+05 7.510000000000e-01 2.490000000000e-01 8.188811844390e-01 1.000000000000e-11 
5.000000000000e-02 0.000000000000e+00 3.330000000000e+00 -3.678800000000e+03 9.995949254800e+04 1.036382925480e+05 7.510000000000e-01 2.490000000000e-01 8.188811844390e-01 1.000000000000e-11 
0.000000000000e+00 0.000000000000e+00 3.330000000000e+00 -3.678800000000e+03 9.995949254800e+04 1.036382925480e+05 7.510000000000e-01 2.490000000000e-01 8.188811844390e-01 1.000000000000e-11 
5.000000000000e-02 0.000000000000e+00 3.404000000000e+00 -2.952860000000e+03 9.995859238240e+04 1.029114523824e+05 7.510000000000e-01 2.490000000000e-01 8.188811844390e-01 1.000000000000e-11 
0.000000000000e+00 0.000000000000e+00 3.404000000000e+00 -2.952860000000e+03 9.995859238240e+04 1.029114523824e+05 7.510000000000e-01 2.490000000000e-01 8.188811844390e-01 1.000000000000e-11 
5.000000000000e-02 0.000000000000e+00 3.478000000000e+00 -2.226920000000e+03 9.995769221680e+04 1.021846122168e+05 7.510000000000e-01 2.490000000000e-01 8.188811844390e-01 1.000000000000e-11 
0.000000000000e+00 0.000000000000e+00 3.478000000000e+00 -2.226920000000e+03 9.995769221680e+04 1.021846122168e+05 7.510000000000e-01 2.490000000000e-01 8.188811844390e-01 1.000000000000e-11 
5.000000000000e-02 0.000000000000e+00 3.552000000000e+00 -1.500980000000e+03 9.995679205120e+04 1.014577720512e+05 7.510000000000e-01 2.490000000000e-01 8.188811844390e-01 1.000000000000e-11 
0.000000000000e+00 0.000000000000e+00 3.552000000000e+00 -1.500980000000e+03 9.995679205120e+04 1.014577720512e+05 7.510000000000e-01 2.490000000000e-01 8.188811844390e-01 1.000000000000e-11 
5.000000000000e-02 0.000000000000e+00 3.626000000000e+00 -7.750400000000e+02 9.995589188560e+04 1.007309318856e+05 7.510000000000e-01 2.490000000000e-01 8.188811844390e-01 1.000000000000e-11 
0.000000000000e+00 0.000000000000e+00 3.626000000000e+00 -7.750400000000e+02 9.995589188560e+04 1.007309318856e+05 7.510000000000e-01 2.490000000000e-01 8.188811844390e-01 1.000000000000e-11 
5.000000000000e-02 0.000000000000e+00 3.700000000000e+00 -4.910000000000e+01 9.995499172000e+04 1.000040917200e+05 7.510000000000e-01 2.490000000000e-01 8.188811844390e-01 1.000000000000e-11 
0.000000000000e+00 0.000000000000e+00 3.700000000000e+00 -4.910000000000e+01 9.995499172000e+04 1.000040917200e+05 7.510000000000e-01 2.490000000000e-01 8.188811844390e-01 1.000000000000e-11 
1  2  3  4  
4  3  5  6  
6  5  7  8  
8  7  9  10  
10  9  11  12  
12  11  13  14  
14  13  15  16  
16  15  17  18  
18  17  19  20  
20  19  21  22  
22  21  23  24  
24  23  25  26  
26  25  27  28  
28  27  29  30  
30  29  31  32  
32  31  33  34  
34  33  35  36  
36  35  37  38  
38  37  39  40  
40  39  41  42  
42  41  43  44  
44  43  45  46  
46  45  47  48  
48  47  49  50  
50  49  51  52  
52  51  53  54  
54  53  55  56  
56  55  57  58  
58  57  59  60  
60  59  61  62  
62  61  63  64  
64  63  65  66  
66  65  67  68  
68  67  69  70  
70  69  71  72  
72  71  73  74  
74  73  75  76  
76  75  77  78  
78  77  79  80  
80  79  81  82  
82  81  83  84  
84  83  85  86  
86  85  87  88  
88  87  89  90  
90  89  91  92  
92  91  93  94  
94  93  95  96  
96  95  97  98  
98  97  99  100  
100  99  101  102  
VARIABLES  = "X","Y","Z", "PRESSURE1", "PRESSURE2", "PRESSURE_W", "SATURATION1", SATURATION2, "n", "Ki"
ZONE T="3.600000000000e+03s", N=102, E=50, F=FEPOINT, ET=QUADRILATERAL
STRANDID=1, SOLUTIONTIME=3.600000000000e+03
0.000000000000e+00 0.000000000000e+00 0.000000000000e+00 -3.634610000000e+04 1.000000000000e+05 1.363461000000e+05 7.510000000000e-01 2.490000000000e-01 3.888294590960e-01 1.000000000000e-11 
5.000000000000e-02 0.000000000000e+00 0.000000000000e+00 -3.634610000000e+04 1.000000000000e+05 1.363461000000e+05 7.510000000000e-01 2.490000000000e-01 3.888294590960e-01 1.000000000000e-11 
5.000000000000e-02 0.000000000000e+00 7.400000000000e-02 -3.562106010989e+04 9.999909983458e+04 1.356201599445e+05 7.510000000000e-01 2.490000000000e-01 3.888294590960e-01 1.000000000000e-11 
0.000000000000e+00 0.000000000000e+00 7.400000000000e-02 -3.562106010989e+04 9.999909983458e+04 1.356201599445e+05 7.510000000000e-01 2.490000000000e-01 3.888294590960e-01 1.000000000000e-11 
5.000000000000e-02 0.000000000000e+00 1.480000000000e-01 -3.489602021981e+04 9.999819966917e+04 1.348942198890e+05 7.510000000000e-01 2.490000000000e-01 3.888294590960e-01 1.000000000000e-11 
0.000000000000e+00 0.000000000000e+00 1.480000000000e-01 -3.489602021981e+04 9.999819966917e+04 1.348942198890e+05 7.510000000000e-01 2.490000000000e-01 3.888294590960e-01 1.000000000000e-11 
5.000000000000e-02 0.000000000000e+00 2.220000000000e-01 -3.417098032979e+04 9.999729950375e+04 1.341682798335e+05 7.510000000000e-01 2.490000000000e-01 3.888294590960e-01 1.000000000000e-11 
0.000000000000e+00 0.000000000000e+00 2.220000000000e-01 -3.417098032979e+04 9.999729950375e+04 1.341682798335e+05 7.510000000000e-01 2.490000000000e-01 3.888294590960e-01 1.000000000000e-11 
5.000000000000e-02 0.000000000000e+00 2.960000000000e-01 -3.344594043985e+04 9.999639933834e+04 1.334423397782e+05 7.510000000000e-01 2.490000000000e-01 3.888294590960e-01 1.000000000000e-11 
0.000000000000e+00 0.000000000000e+00 2.960000000000e-01 -3.344594043985e+04 9.999639933834e+04 1.334423397782e+05 7.510000000000e-01 2.490000000000e-01 3.888294590960e-01 1.000000000000e-11 
5.000000000000e-02 0.000000000000e+00 3.700000000000e-01 -3.272090055002e+04 9.999549917292e+04 1.327163997229e+05 7.510000000000e-01 2.490000000000e-01 3.888294590960e-01 1.000000000000e-11 
0.000000000000e+00 0.000000000000e+00 3.700000000000e-01 -3.272090055002e+04 9.999549917292e+04 1.327163997229e+05 7.510000000000e-01 2.490000000000e-01 3.888294590960e-01 1.000000000000e-11 
5.000000000000e-02 0.000000000000e+00 4.440000000000e-01 -3.199586066033e+04 9.999459900750e+04 1.319904596678e+05 7.510000000000e-01 2.490000000000e-01 3.888294590960e-01 1.000000000000e-11 
0.000000000000e+00 0.000000000000e+00 4.440000000000e-01 -3.199586066033e+04 9.999459900750e+04 1.319904596678e+05 7.510000000000e-01 2.490000000000e-01 3.888294590960e-01 1.000000000000e-11 
5.000000000000e-02 0.000000000000e+00 5.180000000000e-01 -3.127082077080e+04 9.999369884207e+04 1.312645196129e+05 7.510000000000e-01 2.490000000000e-01 3.888294590960e-01 1.000000000000e-11 
0.000000000000e+00 0.000000000000e+00 5.180000000000e-01 -3.127082077080e+04 9.999369884207e+04 1.312645196129e+05 7.510000000000e-01 2.490000000000e-01 3.888294590960e-01 1.000000000000e-11 
5.000000000000e-02 0.000000000000e+00 5.920000000000e-01 -3.054578088148e+04 9.999279867665e+04 1.305385795581e+05 7.510000000000e-01 2.490000000000e-01 3.888294590960e-01 1.000000000000e-11 
0.000000000000e+00 0.000000000000e+00 5.920000000000e-01 -3.054578088148e+04 9.999279867665e+04 1.305385795581e+05 7.510000000000e-01 2.490000000000e-01 3.888294590960e-01 1.000000000000e-11 
5.000000000000e-02 0.000000000000e+00 6.660000000000e-01 -2.982074099237e+04 9.999189851122e+04 1.298126395036e+05 7.510000000000e-01 2.490000000000e-01 3.888294590960e-01 1.000000000000e-11 
0.000000000000e+00 0.000000000000e+00 6.660000000000e-01 -2.982074099237e+04 9.999189851122e+04 1.298126395036e+05 7.510000000000e-01 2.490000000000e-01 3.888294590960e-01 1.000000000000e-11 
5.000000000000e-02 0.000000000000e+00 7.400000000000e-01 -2.909570110351e+04 9.999099834579e+04 1.290866994493e+05 7.510000000000e-01 2.490000000000e-01 3.632694665890e-01 1.000000000000e-11 
0.000000000000e+00 0.000000000000e+00 7.400000000000e-01 -2.909570110351e+04 9.999099834579e+04 1.290866994493e+05 7.510000000000e-01 2.490000000000e-01 3.632694665890e-01 1.000000000000e-11 
5.000000000000e-02 0.000000000000e+00 8.140000000000e-01 -2.837066121491e+04 9.999009818036e+04 1.283607593953e+05 7.510000000000e-01 2.490000000000e-01 3.632694665890e-01 1.000000000000e-11 
0.000000000000e+00 0.000000000000e+00 8.140000000000e-01 -2.837066121491e+04 9.999009818036e+04 1.283607593953e+05 7.510000000000e-01 2.490000000000e-01 3.632694665890e-01 1.000000000000e-11 
5.000000000000e-02 0.000000000000e+00 8.880000000000e-01 -2.764562132660e+04 9.998919801492e+04 1.276348193415e+05 7.510000000000e-01 2.490000000000e-01 3.632694665890e-01 1.000000000000e-11 
0.000000000000e+00 0.000000000000e+00 8.880000000000e-01 -2.764562132660e+04 9.998919801492e+04 1.276348193415e+05 7.510000000000e-01 2.490000000000e-01 3.632694665890e-01 1.000000000000e-11 
5.000000000000e-02 0.000000000000e+00 9.620000000000e-01 -2.692058143860e+04 9.998829784948e+04 1.269088792881e+05 7.510000000000e-01 2.490000000000e-01 3.632694665890e-01 1.000000000000e-11 
0.000000000000e+00 0.000000000000e+00 9.620000000000e-01 -2.692058143860e+04 9.998829784948e+04 1.269088792881e+05 7.510000000000e-01 2.490000000000e-01 3.632694665890e-01 1.000000000000e-11 
5.000000000000e-02 0.000000000000e+00 1.036000000000e+00 -2.619554155094e+04 9.998739768404e+04 1.261829392350e+05 7.510000000000e-01 2.490000000000e-01 3.632694665890e-01 1.000000000000e-11 
0.000000000000e+00 0.000000000000e+00 1.036000000000e+00 -2.619554155094e+04 9.998739768404e+04 1.261829392350e+05 7.510000000000e-01 2.490000000000e-01 3.632694665890e-01 1.000000000000e-11 
5.000000000000e-02 0.000000000000e+00 1.110000000000e+00 -2.547050166364e+04 9.998649751859e+04 1.254569991822e+05 7.510000000000e-01 2.490000000000e-01 3.632694665890e-01 1.000000000000e-11 
0.000000000000e+00 0.000000000000e+00 1.110000000000e+00 -2.547050166364e+04 9.998649751859e+04 1.254569991822e+05 7.510000000000e-01 2.490000000000e-01 3.632694665890e-01 1.000000000000e-11 
5.000000000000e-02 0.000000000000e+00 1.184000000000e+00 -2.474546177673e+04 9.998559735314e+04 1.247310591299e+05 7.510000000000e-01 2.490000000000e-01 3.632694665890e-01 1.000000000000e-11 
0.000000000000e+00 0.000000000000e+00 1.184000000000e+00 -2.474546177673e+04 9.998559735314e+04 1.247310591299e+05 7.510000000000e-01 2.490000000000e-01 3.632694665890e-01 1.000000000000e-11 
5.000000000000e-02 0.000000000000e+00 1.258000000000e+00 -2.402042189024e+04 9.998469718768e+04 1.240051190779e+05 7.510000000000e-01 2.490000000000e-01 3.632694665890e-01 1.000000000000e-11 
0.000000000000e+00 0.000000000000e+00 1.258000000000e+00 -2.402042189024e+04 9.998469718768e+04 1.240051190779e+05 7.510000000000e-01 2.490000000000e-01 3.632694665890e-01 1.000000000000e-11 
5.000000000000e-02 0.000000000000e+00 1.332000000000e+00 -2.329538200418e+04 9.998379702221e+04 1.232791790264e+05 7.510000000000e-01 2.490000000000e-01 3.632694665890e-01 1.000000000000e-11 
0.000000000000e+00 0.000000000000e+00 1.332000000000e+00 -2.329538200418e+04 9.998379702221e+04 1.232791790264e+05 7.510000000000e-01 2.490000000000e-01 3.632694665890e-01 1.000000000000e-11 
5.000000000000e-02 0.000000000000e+00 1.406000000000e+00 -2.257034211860e+04 9.998289685674e+04 1.225532389753e+05 7.510000000000e-01 2.490000000000e-01 3.632694665890e-01 1.000000000000e-11 
0.000000000000e+00 0.000000000000e+00 1.406000000000e+00 -2.257034211860e+04 9.998289685674e+04 1.225532389753e+05 7.510000000000e-01 2.490000000000e-01 3.632694665890e-01 1.000000000000e-11 
5.000000000000e-02 0.000000000000e+00 1.480000000000e+00 -2.184530223356e+04 9.998199669127e+04 1.218272989248e+05 7.510000000000e-01 2.490000000000e-01 5.254848356160e-01 1.000000000000e-11 
0.000000000000e+00 0.000000000000e+00 1.480000000000e+00 -2.184530223356e+04 9.998199669127e+04 1.218272989248e+05 7.510000000000e-01 2.490000000000e-01 5.254848356160e-01 1.000000000000e-11 
5.000000000000e-02 0.000000000000e+00 1.554000000000e+00 -2.112026234922e+04 9.998109652579e+04 1.211013588750e+05 7.510000000000e-01 2.490000000000e-01 5.254848356160e-01 1.000000000000e-11 
0.000000000000e+00 0.000000000000e+00 1.554000000000e+00 -2.112026234922e+04 9.998109652579e+04 1.211013588750e+05 7.510000000000e-01 2.490000000000e-01 5.254848356160e-01 1.000000000000e-11 
5.000000000000e-02 0.000000000000e+00 1.628000000000e+00 -2.039522246566e+04 9.998019636029e+04 1.203754188260e+05 7.510000000000e-01 2.490000000000e-01 5.254848356160e-01 1.000000000000e-11 
0.000000000000e+00 0.000000000000e+00 1.628000000000e+00 -2.039522246566e+04 9.998019636029e+04 1.203754188260e+05 7.510000000000e-01 2.490000000000e-01 5.254848356160e-01 1.000000000000e-11 
5.000000000000e-02 0.000000000000e+00 1.702000000000e+00 -1.967018258294e+04 9.997929619479e+04 1.196494787777e+05 7.510000000000e-01 2.490000000000e-01 5.254848356160e-01 1.000000000000e-11 