 TITLE = "Time curves in points"
 VARIABLES = "TIME "  "PRESSURE1"  "PRESSURE2"  "PRESSURE_W"  "SATURATION1" SATURATION2  "n"  "Ki" 
 ZONE T="POINT=POINT3"
0.000000000000e+00 -4.910000000000e+01 9.995499172000e+04 1.000040917200e+05 7.510000000000e-01 2.490000000000e-01 0.000000000000e+00 0.000000000000e+00 
3.600000000000e+03 -9.410710300483e+01 9.995499172000e+04 1.000490988230e+05 7.510000000000e-01 2.490000000000e-01 0.000000000000e+00 0.000000000000e+00 
7.200000000000e+03 9.700444367537e+02 9.995499172000e+04 9.898494728325e+04 7.136561923889e-01 2.863438076111e-01 0.000000000000e+00 0.000000000000e+00 
1.080000000000e+04 2.620867394076e+03 9.995499172000e+04 9.733412432592e+04 6.754839748350e-01 3.245160251650e-01 0.000000000000e+00 0.000000000000e+00 
1.440000000000e+04 3.135325774680e+03 9.995499172000e+04 9.681966594532e+04 6.689902584334e-01 3.310097415666e-01 0.000000000000e+00 0.000000000000e+00 
1.800000000000e+04 3.391039172454e+03 9.995499172000e+04 9.656395254755e+04 6.662612444300e-01 3.337387555700e-01 0.000000000000e+00 0.000000000000e+00 
2.160000000000e+04 3.440679469428e+03 9.995499172000e+04 9.651431225057e+04 6.657634201637e-01 3.342365798363e-01 0.000000000000e+00 0.000000000000e+00 
2.520000000000e+04 3.438359951706e+03 9.995499172000e+04 9.651663176829e+04 6.657864648271e-01 3.342135351729e-01 0.000000000000e+00 0.000000000000e+00 
2.880000000000e+04 3.382719941025e+03 9.995499172000e+04 9.657227177898e+04 6.663456389092e-01 3.336543610908e-01 0.000000000000e+00 0.000000000000e+00 
3.240000000000e+04 3.313376552185e+03 9.995499172000e+04 9.664161516781e+04 6.670601486287e-01 3.329398513713e-01 0.000000000000e+00 0.000000000000e+00 
3.600000000000e+04 3.331397029517e+03 9.995499172000e+04 9.662359469048e+04 6.668725444385e-01 3.331274555615e-01 0.000000000000e+00 0.000000000000e+00 
3.960000000000e+04 3.371203780252e+03 9.995499172000e+04 9.658378793975e+04 6.664629279368e-01 3.335370720632e-01 0.000000000000e+00 0.000000000000e+00 
4.320000000000e+04 3.416368970795e+03 9.995499172000e+04 9.653862274920e+04 6.660059986851e-01 3.339940013149e-01 0.000000000000e+00 0.000000000000e+00 
4.680000000000e+04 3.462974374222e+03 9.995499172000e+04 9.649201734578e+04 6.655429864639e-01 3.344570135361e-01 0.000000000000e+00 0.000000000000e+00 
5.040000000000e+04 3.510009478962e+03 9.995499172000e+04 9.644498224104e+04 6.650841998425e-01 3.349158001575e-01 0.000000000000e+00 0.000000000000e+00 
5.400000000000e+04 3.556913079621e+03 9.995499172000e+04 9.639807864038e+04 6.646349540957e-01 3.353650459043e-01 0.000000000000e+00 0.000000000000e+00 
5.760000000000e+04 3.603856391774e+03 9.995499172000e+04 9.635113532823e+04 6.641933538076e-01 3.358066461924e-01 0.000000000000e+00 0.000000000000e+00 
6.120000000000e+04 3.650921840994e+03 9.995499172000e+04 9.630406987901e+04 6.637584413900e-01 3.362415586100e-01 0.000000000000e+00 0.000000000000e+00 
6.480000000000e+04 3.698084261455e+03 9.995499172000e+04 9.625690745855e+04 6.633302872711e-01 3.366697127289e-01 0.000000000000e+00 0.000000000000e+00 
6.840000000000e+04 3.744985863362e+03 9.995499172000e+04 9.621000585664e+04 6.629118922920e-01 3.370881077080e-01 0.000000000000e+00 0.000000000000e+00 
7.200000000000e+04 3.791955739277e+03 9.995499172000e+04 9.616303598072e+04 6.625000755068e-01 3.374999244932e-01 0.000000000000e+00 0.000000000000e+00 
7.560000000000e+04 3.839042945879e+03 9.995499172000e+04 9.611594877412e+04 6.620942561142e-01 3.379057438858e-01 0.000000000000e+00 0.000000000000e+00 
7.920000000000e+04 3.886221956493e+03 9.995499172000e+04 9.606876976351e+04 6.616945133510e-01 3.383054866490e-01 0.000000000000e+00 0.000000000000e+00 
8.280000000000e+04 3.933098381247e+03 9.995499172000e+04 9.602189333875e+04 6.613039635606e-01 3.386960364394e-01 0.000000000000e+00 0.000000000000e+00 
8.640000000000e+04 3.980084750906e+03 9.995499172000e+04 9.597490696909e+04 6.609189559020e-01 3.390810440980e-01 0.000000000000e+00 0.000000000000e+00 
9.000000000000e+04 4.238271660844e+03 9.995499172000e+04 9.571672005916e+04 6.589115743826e-01 3.410884256174e-01 0.000000000000e+00 0.000000000000e+00 
9.360000000000e+04 4.550165682004e+03 9.995499172000e+04 9.540482603800e+04 6.567056305034e-01 3.432943694966e-01 0.000000000000e+00 0.000000000000e+00 
9.720000000000e+04 4.626788742112e+03 9.995499172000e+04 9.532820297789e+04 6.561964547173e-01 3.438035452827e-01 0.000000000000e+00 0.000000000000e+00 
1.008000000000e+05 4.639654484680e+03 9.995499172000e+04 9.531533723532e+04 6.561121426721e-01 3.438878573279e-01 0.000000000000e+00 0.000000000000e+00 
1.044000000000e+05 5.013881885809e+03 9.995499172000e+04 9.494110983419e+04 6.537979774227e-01 3.462020225773e-01 0.000000000000e+00 0.000000000000e+00 
1.080000000000e+05 5.487028504670e+03 9.995499172000e+04 9.446796321533e+04 6.512074125749e-01 3.487925874251e-01 0.000000000000e+00 0.000000000000e+00 
1.116000000000e+05 6.827739051642e+03 9.995499172000e+04 9.312725266836e+04 6.453670613244e-01 3.546329386756e-01 0.000000000000e+00 0.000000000000e+00 
1.152000000000e+05 7.885830837632e+03 9.995499172000e+04 9.206916088237e+04 6.418489072885e-01 3.581510927115e-01 0.000000000000e+00 0.000000000000e+00 
1.188000000000e+05 8.507183578176e+03 9.995499172000e+04 9.144780814182e+04 6.400985075016e-01 3.599014924984e-01 0.000000000000e+00 0.000000000000e+00 
1.224000000000e+05 9.004702224345e+03 9.995499172000e+04 9.095028949565e+04 6.388313702305e-01 3.611686297695e-01 0.000000000000e+00 0.000000000000e+00 
1.260000000000e+05 9.175010902700e+03 9.995499172000e+04 9.077998081730e+04 6.384218669938e-01 3.615781330062e-01 0.000000000000e+00 0.000000000000e+00 
1.296000000000e+05 9.252219112415e+03 9.995499172000e+04 9.070277260758e+04 6.382400257439e-01 3.617599742561e-01 0.000000000000e+00 0.000000000000e+00 
1.332000000000e+05 9.304354935241e+03 9.995499172000e+04 9.065063678476e+04 6.381185417236e-01 3.618814582764e-01 0.000000000000e+00 0.000000000000e+00 
1.368000000000e+05 9.349540699056e+03 9.995499172000e+04 9.060545102094e+04 6.380140912512e-01 3.619859087488e-01 0.000000000000e+00 0.000000000000e+00 
1.404000000000e+05 9.392862326684e+03 9.995499172000e+04 9.056212939332e+04 6.379146722719e-01 3.620853277281e-01 0.000000000000e+00 0.000000000000e+00 
1.440000000000e+05 9.435765196787e+03 9.995499172000e+04 9.051922652321e+04 6.378169032308e-01 3.621830967692e-01 0.000000000000e+00 0.000000000000e+00 
1.476000000000e+05 9.478599717342e+03 9.995499172000e+04 9.047639200266e+04 6.377199661886e-01 3.622800338114e-01 0.000000000000e+00 0.000000000000e+00 
1.512000000000e+05 9.521346993125e+03 9.995499172000e+04 9.043364472688e+04 6.376238927011e-01 3.623761072989e-01 0.000000000000e+00 0.000000000000e+00 
1.548000000000e+05 9.563974552920e+03 9.995499172000e+04 9.039101716708e+04 6.375287435608e-01 3.624712564392e-01 0.000000000000e+00 0.000000000000e+00 
1.584000000000e+05 9.606675608746e+03 9.995499172000e+04 9.034831611125e+04 6.374340791891e-01 3.625659208109e-01 0.000000000000e+00 0.000000000000e+00 
1.620000000000e+05 9.649446341895e+03 9.995499172000e+04 9.030554537810e+04 6.373399041591e-01 3.626600958409e-01 0.000000000000e+00 0.000000000000e+00 
1.656000000000e+05 9.692269687308e+03 9.995499172000e+04 9.026272203269e+04 6.372462517285e-01 3.627537482715e-01 0.000000000000e+00 0.000000000000e+00 
1.692000000000e+05 9.734855024665e+03 9.995499172000e+04 9.022013669534e+04 6.371537464160e-01 3.628462535840e-01 0.000000000000e+00 0.000000000000e+00 
1.728000000000e+05 9.777528062400e+03 9.995499172000e+04 9.017746365760e+04 6.370616705834e-01 3.629383294166e-01 0.000000000000e+00 0.000000000000e+00 
1.764000000000e+05 9.820281166779e+03 9.995499172000e+04 9.013471055322e+04 6.369700376343e-01 3.630299623657e-01 0.000000000000e+00 0.000000000000e+00 
1.800000000000e+05 9.863092295861e+03 9.995499172000e+04 9.009189942414e+04 6.368788911373e-01 3.631211088627e-01 0.000000000000e+00 0.000000000000e+00 
1.836000000000e+05 9.905714911140e+03 9.995499172000e+04 9.004927680886e+04 6.367887466740e-01 3.632112533260e-01 0.000000000000e+00 0.000000000000e+00 
1.872000000000e+05 9.945853049284e+03 9.995499172000e+04 9.000913867072e+04 6.367043989698e-01 3.632956010302e-01 0.000000000000e+00 0.000000000000e+00 
1.908000000000e+05 9.985340002182e+03 9.995499172000e+04 8.996965171782e+04 6.366219276942e-01 3.633780723058e-01 0.000000000000e+00 0.000000000000e+00 
1.944000000000e+05 1.002117412268e+04 9.995499172000e+04 8.993381759732e+04 6.365475175369e-01 3.634524824631e-01 0.000000000000e+00 0.000000000000e+00 
1.980000000000e+05 1.005598900656e+04 9.995499172000e+04 8.989900271344e+04 6.364756138682e-01 3.635243861318e-01 0.000000000000e+00 0.000000000000e+00 
2.016000000000e+05 1.010565114924e+04 9.995499172000e+04 8.984934057076e+04 6.363737046214e-01 3.636262953786e-01 0.000000000000e+00 0.000000000000e+00 
2.052000000000e+05 1.015969216944e+04 9.995499172000e+04 8.979529955056e+04 6.362636796080e-01 3.637363203920e-01 0.000000000000e+00 0.000000000000e+00 
2.088000000000e+05 1.021500761086e+04 9.995499172000e+04 8.973998410914e+04 6.361519867494e-01 3.638480132506e-01 0.000000000000e+00 0.000000000000e+00 
2.124000000000e+05 1.024049652162e+04 9.995499172000e+04 8.971449519838e+04 6.361008316927e-01 3.638991683073e-01 0.000000000000e+00 0.000000000000e+00 
2.160000000000e+05 1.025751270809e+04 9.995499172000e+04 8.969747901191e+04 6.360667897332e-01 3.639332102668e-01 0.000000000000e+00 0.000000000000e+00 
2.196000000000e+05 1.027231660674e+04 9.995499172000e+04 8.968267511326e+04 6.360372440853e-01 3.639627559147e-01 0.000000000000e+00 0.000000000000e+00 
2.232000000000e+05 1.028653759287e+04 9.995499172000e+04 8.966845412713e+04 6.360089233514e-01 3.639910766486e-01 0.000000000000e+00 0.000000000000e+00 
2.268000000000e+05 1.030060630411e+04 9.995499172000e+04 8.965438541589e+04 6.359809649983e-01 3.640190350017e-01 0.000000000000e+00 0.000000000000e+00 
2.304000000000e+05 1.031463677952e+04 9.995499172000e+04 8.964035494048e+04 6.359531410017e-01 3.640468589983e-01 0.000000000000e+00 0.000000000000e+00 
2.340000000000e+05 1.032865902926e+04 9.995499172000e+04 8.962633269074e+04 6.359253913612e-01 3.640746086388e-01 0.000000000000e+00 0.000000000000e+00 
2.376000000000e+05 1.034268077614e+04 9.995499172000e+04 8.961231094386e+04 6.358977005429e-01 3.641022994571e-01 0.000000000000e+00 0.000000000000e+00 
2.412000000000e+05 1.035670386692e+04 9.995499172000e+04 8.959828785308e+04 6.358700647098e-01 3.641299352902e-01 0.000000000000e+00 0.000000000000e+00 
2.448000000000e+05 1.037072862746e+04 9.995499172000e+04 8.958426309254e+04 6.358424830439e-01 3.641575169561e-01 0.000000000000e+00 0.000000000000e+00 
2.484000000000e+05 1.038475500985e+04 9.995499172000e+04 8.957023671015e+04 6.358149554660e-01 3.641850445340e-01 0.000000000000e+00 0.000000000000e+00 
2.520000000000e+05 1.039878288875e+04 9.995499172000e+04 8.955620883125e+04 6.357874820484e-01 3.642125179516e-01 0.000000000000e+00 0.000000000000e+00 
2.556000000000e+05 1.041281213435e+04 9.995499172000e+04 8.954217958565e+04 6.357600628709e-01 3.642399371291e-01 0.000000000000e+00 0.000000000000e+00 
2.592000000000e+05 1.042681592447e+04 9.995499172000e+04 8.952817579553e+04 6.357327500187e-01 3.642672499813e-01 0.000000000000e+00 0.000000000000e+00 
2.628000000000e+05 1.208043257344e+04 9.995499172000e+04 8.787455914656e+04 6.328580501208e-01 3.671419498792e-01 0.000000000000e+00 0.000000000000e+00 
2.664000000000e+05 1.292662661313e+04 9.995499172000e+04 8.702836510687e+04 6.316113280615e-01 3.683886719385e-01 0.000000000000e+00 0.000000000000e+00 
2.700000000000e+05 1.352544377285e+04 9.995499172000e+04 8.642954794715e+04 6.308029375592e-01 3.691970624408e-01 0.000000000000e+00 0.000000000000e+00 
2.736000000000e+05 1.405279539058e+04 9.995499172000e+04 8.590219632942e+04 6.301356785159e-01 3.698643214841e-01 0.000000000000e+00 0.000000000000e+00 
2.772000000000e+05 1.435527156365e+04 9.995499172000e+04 8.559972015635e+04 6.297702360607e-01 3.702297639393e-01 0.000000000000e+00 0.000000000000e+00 
2.808000000000e+05 1.459647105841e+04 9.995499172000e+04 8.535852066159e+04 6.294872938415e-01 3.705127061585e-01 0.000000000000e+00 0.000000000000e+00 
2.844000000000e+05 1.494065427530e+04 9.995499172000e+04 8.501433744470e+04 6.290959003425e-01 3.709040996575e-01 0.000000000000e+00 0.000000000000e+00 
2.880000000000e+05 1.531193997949e+04 9.995499172000e+04 8.464305174051e+04 6.286891136621e-01 3.713108863379e-01 0.000000000000e+00 0.000000000000e+00 
2.916000000000e+05 1.569006639611e+04 9.995499172000e+04 8.426492532389e+04 6.282903150879e-01 3.717096849121e-01 0.000000000000e+00 0.000000000000e+00 
2.952000000000e+05 1.585113195323e+04 9.995499172000e+04 8.410385976677e+04 6.281249580382e-01 3.718750419618e-01 0.000000000000e+00 0.000000000000e+00 
2.988000000000e+05 1.595421063248e+04 9.995499172000e+04 8.400078108752e+04 6.280204998400e-01 3.719795001600e-01 0.000000000000e+00 0.000000000000e+00 
3.024000000000e+05 1.604389050021e+04 9.995499172000e+04 8.391110121979e+04 6.279304714339e-01 3.720695285661e-01 0.000000000000e+00 0.000000000000e+00 
3.060000000000e+05 1.613013225448e+04 9.995499172000e+04 8.382485946552e+04 6.278446310334e-01 3.721553689666e-01 0.000000000000e+00 0.000000000000e+00 
3.096000000000e+05 1.621592889072e+04 9.995499172000e+04 8.373906282928e+04 6.277599404441e-01 3.722400595559e-01 0.000000000000e+00 0.000000000000e+00 
3.132000000000e+05 1.630112876763e+04 9.995499172000e+04 8.365386295237e+04 6.276765271994e-01 3.723234728006e-01 0.000000000000e+00 0.000000000000e+00 
3.168000000000e+05 1.638664684693e+04 9.995499172000e+04 8.356834487307e+04 6.275934830063e-01 3.724065169937e-01 0.000000000000e+00 0.000000000000e+00 
3.204000000000e+05 1.647181428163e+04 9.995499172000e+04 8.348317743837e+04 6.275114480613e-01 3.724885519387e-01 0.000000000000e+00 0.000000000000e+00 
3.240000000000e+05 1.655729575758e+04 9.995499172000e+04 8.339769596242e+04 6.274297729008e-01 3.725702270992e-01 0.000000000000e+00 0.000000000000e+00 
3.276000000000e+05 1.664249016665e+04 9.995499172000e+04 8.331250155335e+04 6.273490235838e-01 3.726509764162e-01 0.000000000000e+00 0.000000000000e+00 
3.312000000000e+05 1.672794671513e+04 9.995499172000e+04 8.322704500487e+04 6.272686707966e-01 3.727313292034e-01 0.000000000000e+00 0.000000000000e+00 
3.348000000000e+05 1.681317396126e+04 9.995499172000e+04 8.314181775874e+04 6.271891687057e-01 3.728108312943e-01 0.000000000000e+00 0.000000000000e+00 
3.384000000000e+05 1.689860393361e+04 9.995499172000e+04 8.305638778639e+04 6.271101058325e-01 3.728898941675e-01 0.000000000000e+00 0.000000000000e+00 
3.420000000000e+05 1.708765820574e+04 9.995499172000e+04 8.286733351426e+04 6.269373382740e-01 3.730626617260e-01 0.000000000000e+00 0.000000000000e+00 
3.456000000000e+05 1.730325741850e+04 9.995499172000e+04 8.265173430150e+04 6.267439166083e-01 3.732560833917e-01 0.000000000000e+00 0.000000000000e+00 
3.492000000000e+05 1.752449278816e+04 9.995499172000e+04 8.243049893184e+04 6.265493098006e-01 3.734506901994e-01 0.000000000000e+00 0.000000000000e+00 
3.528000000000e+05 1.774746807564e+04 9.995499172000e+04 8.220752364436e+04 6.263570147530e-01 3.736429852470e-01 0.000000000000e+00 0.000000000000e+00 
3.564000000000e+05 1.797104627026e+04 9.995499172000e+04 8.198394544974e+04 6.261679504113e-01 3.738320495887e-01 0.000000000000e+00 0.000000000000e+00 
3.600000000000e+05 1.818589423496e+04 9.995499172000e+04 8.176909748504e+04 6.259896978205e-01 3.740103021795e-01 0.000000000000e+00 0.000000000000e+00 
3.636000000000e+05 1.838942161261e+04 9.995499172000e+04 8.156557010739e+04 6.258238455200e-01 3.741761544800e-01 0.000000000000e+00 0.000000000000e+00 
3.672000000000e+05 1.858982806364e+04 9.995499172000e+04 8.136516365636e+04 6.256633150919e-01 3.743366849081e-01 0.000000000000e+00 0.000000000000e+00 
3.708000000000e+05 1.879410110997e+04 9.995499172000e+04 8.116089061003e+04 6.255024468376e-01 3.744975531624e-01 0.000000000000e+00 0.000000000000e+00 
3.744000000000e+05 1.900381261899e+04 9.995499172000e+04 8.095117910101e+04 6.253401140232e-01 3.746598859768e-01 0.000000000000e+00 0.000000000000e+00 
3.780000000000e+05 1.921493428287e+04 9.995499172000e+04 8.074005743713e+04 6.251794940101e-01 3.748205059899e-01 0.000000000000e+00 0.000000000000e+00 
3.816000000000e+05 1.942643952986e+04 9.995499172000e+04 8.052855219014e+04 6.250213254515e-01 3.749786745485e-01 0.000000000000e+00 0.000000000000e+00 
3.852000000000e+05 1.961775801084e+04 9.995499172000e+04 8.033723370916e+04 6.248805552105e-01 3.751194447895e-01 0.000000000000e+00 0.000000000000e+00 
3.888000000000e+05 1.978389189912e+04 9.995499172000e+04 8.017109982088e+04 6.247600460866e-01 3.752399539134e-01 0.000000000000e+00 0.000000000000e+00 
3.924000000000e+05 1.994414078725e+04 9.995499172000e+04 8.001085093275e+04 6.246452962677e-01 3.753547037323e-01 0.000000000000e+00 0.000000000000e+00 
3.960000000000e+05 2.010316747331e+04 9.995499172000e+04 7.985182424669e+04 6.245328388043e-01 3.754671611957e-01 0.000000000000e+00 0.000000000000e+00 
3.996000000000e+05 2.026197456812e+04 9.995499172000e+04 7.969301715188e+04 6.244219171543e-01 3.755780828457e-01 0.000000000000e+00 0.000000000000e+00 
4.032000000000e+05 2.042078482520e+04 9.995499172000e+04 7.953420689480e+04 6.243123454957e-01 3.756876545043e-01 0.000000000000e+00 0.000000000000e+00 
4.068000000000e+05 2.057967763817e+04 9.995499172000e+04 7.937531408183e+04 6.242040434666e-01 3.757959565334e-01 0.000000000000e+00 0.000000000000e+00 
4.104000000000e+05 2.065727500522e+04 9.995499172000e+04 7.929771671478e+04 6.241516271602e-01 3.758483728398e-01 0.000000000000e+00 0.000000000000e+00 
4.140000000000e+05 2.071617822113e+04 9.995499172000e+04 7.923881349887e+04 6.241120439091e-01 3.758879560909e-01 0.000000000000e+00 0.000000000000e+00 
4.176000000000e+05 2.077111585557e+04 9.995499172000e+04 7.918387586443e+04 6.240752840106e-01 3.759247159894e-01 0.000000000000e+00 0.000000000000e+00 
4.212000000000e+05 2.082525925164e+04 9.995499172000e+04 7.912973246836e+04 6.240392041683e-01 3.759607958317e-01 0.000000000000e+00 0.000000000000e+00 
4.248000000000e+05 2.087932327455e+04 9.995499172000e+04 7.907566844545e+04 6.240033234482e-01 3.759966765518e-01 0.000000000000e+00 0.000000000000e+00 
4.284000000000e+05 2.093339578769e+04 9.995499172000e+04 7.902159593231e+04 6.239675822864e-01 3.760324177136e-01 0.000000000000e+00 0.000000000000e+00 
4.320000000000e+05 2.095298127226e+04 9.995499172000e+04 7.900201044774e+04 6.239546721967e-01 3.760453278033e-01 0.000000000000e+00 0.000000000000e+00 
4.356000000000e+05 2.096475739434e+04 9.995499172000e+04 7.899023432566e+04 6.239469188661e-01 3.760530811339e-01 0.000000000000e+00 0.000000000000e+00 
4.392000000000e+05 2.097495303878e+04 9.995499172000e+04 7.898003868122e+04 6.239402116180e-01 3.760597883820e-01 0.000000000000e+00 0.000000000000e+00 
4.428000000000e+05 2.098483231863e+04 9.995499172000e+04 7.897015940137e+04 6.239337173593e-01 3.760662826407e-01 0.000000000000e+00 0.000000000000e+00 
4.464000000000e+05 2.578270325332e+04 9.995499172000e+04 7.417228846668e+04 6.212538968613e-01 3.787461031387e-01 0.000000000000e+00 0.000000000000e+00 
4.500000000000e+05 2.791383799270e+04 9.995499172000e+04 7.204115372730e+04 6.203013028954e-01 3.796986971046e-01 0.000000000000e+00 0.000000000000e+00 
4.536000000000e+05 2.850472077277e+04 9.995499172000e+04 7.145027094723e+04 6.200571618522e-01 3.799428381478e-01 0.000000000000e+00 0.000000000000e+00 
4.572000000000e+05 2.886197619050e+04 9.995499172000e+04 7.109301552950e+04 6.199133727098e-01 3.800866272902e-01 0.000000000000e+00 0.000000000000e+00 
4.608000000000e+05 2.919927975097e+04 9.995499172000e+04 7.075571196903e+04 6.197801574101e-01 3.802198425899e-01 0.000000000000e+00 0.000000000000e+00 
4.644000000000e+05 2.953450627254e+04 9.995499172000e+04 7.042048544746e+04 6.196501370545e-01 3.803498629455e-01 0.000000000000e+00 0.000000000000e+00 
4.680000000000e+05 2.986954349958e+04 9.995499172000e+04 7.008544822042e+04 6.195224870784e-01 3.804775129216e-01 0.000000000000e+00 0.000000000000e+00 
4.716000000000e+05 2.993814730939e+04 9.995499172000e+04 7.001684441061e+04 6.194966261261e-01 3.805033738739e-01 0.000000000000e+00 0.000000000000e+00 
4.752000000000e+05 2.996692968745e+04 9.995499172000e+04 6.998806203255e+04 6.194858040143e-01 3.805141959857e-01 0.000000000000e+00 0.000000000000e+00 
4.788000000000e+05 2.999098531218e+04 9.995499172000e+04 6.996400640782e+04 6.194767716774e-01 3.805232283226e-01 0.000000000000e+00 0.000000000000e+00 
4.824000000000e+05 3.001447923068e+04 9.995499172000e+04 6.994051248932e+04 6.194679612333e-01 3.805320387667e-01 0.000000000000e+00 0.000000000000e+00 
4.860000000000e+05 3.003792044419e+04 9.995499172000e+04 6.991707127581e+04 6.194591813512e-01 3.805408186488e-01 0.000000000000e+00 0.000000000000e+00 
4.896000000000e+05 3.006136128441e+04 9.995499172000e+04 6.989363043559e+04 6.194504123718e-01 3.805495876282e-01 0.000000000000e+00 0.000000000000e+00 
4.932000000000e+05 3.008480530986e+04 9.995499172000e+04 6.987018641014e+04 6.194416529445e-01 3.805583470555e-01 0.000000000000e+00 0.000000000000e+00 
4.968000000000e+05 3.010825202144e+04 9.995499172000e+04 6.984673969856e+04 6.194329032383e-01 3.805670967617e-01 0.000000000000e+00 0.000000000000e+00 
5.004000000000e+05 3.013170087667e+04 9.995499172000e+04 6.982329084333e+04 6.194241634376e-01 3.805758365624e-01 0.000000000000e+00 0.000000000000e+00 
5.040000000000e+05 3.015515149351e+04 9.995499172000e+04 6.979984022649e+04 6.194154336660e-01 3.805845663340e-01 0.000000000000e+00 0.000000000000e+00 
5.076000000000e+05 3.017860077196e+04 9.995499172000e+04 6.977639094804e+04 6.194067150566e-01 3.805932849434e-01 0.000000000000e+00 0.000000000000e+00 
5.112000000000e+05 3.020202526497e+04 9.995499172000e+04 6.975296645503e+04 6.193980162882e-01 3.806019837118e-01 0.000000000000e+00 0.000000000000e+00 
5.148000000000e+05 3.022546060769e+04 9.995499172000e+04 6.972953111231e+04 6.193893240969e-01 3.806106759031e-01 0.000000000000e+00 0.000000000000e+00 
5.184000000000e+05 3.024890182565e+04 9.995499172000e+04 6.970608989435e+04 6.193806403180e-01 3.806193596820e-01 0.000000000000e+00 0.000000000000e+00 
5.220000000000e+05 3.027234652957e+04 9.995499172000e+04 6.968264519043e+04 6.193719658219e-01 3.806280341781e-01 0.000000000000e+00 0.000000000000e+00 
5.256000000000e+05 3.029579373158e+04 9.995499172000e+04 6.965919798842e+04 6.193633009573e-01 3.806366990427e-01 0.000000000000e+00 0.000000000000e+00 
5.292000000000e+05 3.031924290552e+04 9.995499172000e+04 6.963574881448e+04 6.193546459005e-01 3.806453540995e-01 0.000000000000e+00 0.000000000000e+00 
5.328000000000e+05 3.034269370767e+04 9.995499172000e+04 6.961229801233e+04 6.193460007602e-01 3.806539992398e-01 0.000000000000e+00 0.000000000000e+00 
5.364000000000e+05 3.036960099513e+04 9.995499172000e+04 6.958539072487e+04 6.193360943165e-01 3.806639056835e-01 0.000000000000e+00 0.000000000000e+00 
5.400000000000e+05 3.039700328616e+04 9.995499172000e+04 6.955798843384e+04 6.193260197980e-01 3.806739802020e-01 0.000000000000e+00 0.000000000000e+00 
5.436000000000e+05 3.042447103129e+04 9.995499172000e+04 6.953052068871e+04 6.193159355331e-01 3.806840644669e-01 0.000000000000e+00 0.000000000000e+00 
5.472000000000e+05 3.045195082108e+04 9.995499172000e+04 6.950304089892e+04 6.193058611575e-01 3.806941388425e-01 0.000000000000e+00 0.000000000000e+00 
5.508000000000e+05 3.047943529539e+04 9.995499172000e+04 6.947555642461e+04 6.192957993495e-01 3.807042006505e-01 0.000000000000e+00 0.000000000000e+00 
5.544000000000e+05 3.049563886379e+04 9.995499172000e+04 6.945935285621e+04 6.192898740558e-01 3.807101259442e-01 0.000000000000e+00 0.000000000000e+00 
5.580000000000e+05 3.051023543266e+04 9.995499172000e+04 6.944475628734e+04 6.192845406429e-01 3.807154593571e-01 0.000000000000e+00 0.000000000000e+00 
5.616000000000e+05 3.052465119649e+04 9.995499172000e+04 6.943034052351e+04 6.192792772295e-01 3.807207227705e-01 0.000000000000e+00 0.000000000000e+00 
5.652000000000e+05 3.053904781625e+04 9.995499172000e+04 6.941594390375e+04 6.192740247044e-01 3.807259752956e-01 0.000000000000e+00 0.000000000000e+00 
5.688000000000e+05 3.055343036804e+04 9.995499172000e+04 6.940156135196e+04 6.192687811973e-01 3.807312188027e-01 0.000000000000e+00 0.000000000000e+00 
5.724000000000e+05 3.056781648443e+04 9.995499172000e+04 6.938717523557e+04 6.192635402711e-01 3.807364597289e-01 0.000000000000e+00 0.000000000000e+00 
5.760000000000e+05 3.058220496889e+04 9.995499172000e+04 6.937278675111e+04 6.192583023592e-01 3.807416976408e-01 0.000000000000e+00 0.000000000000e+00 
5.796000000000e+05 3.059659481054e+04 9.995499172000e+04 6.935839690946e+04 6.192530678266e-01 3.807469321734e-01 0.000000000000e+00 0.000000000000e+00 
5.832000000000e+05 3.061098557708e+04 9.995499172000e+04 6.934400614292e+04 6.192478368267e-01 3.807521631733e-01 0.000000000000e+00 0.000000000000e+00 
5.868000000000e+05 3.062537705468e+04 9.995499172000e+04 6.932961466532e+04 6.192426094332e-01 3.807573905668e-01 0.000000000000e+00 0.000000000000e+00 
5.904000000000e+05 3.063976911642e+04 9.995499172000e+04 6.931522260358e+04 6.192373856881e-01 3.807626143119e-01 0.000000000000e+00 0.000000000000e+00 
5.940000000000e+05 3.065416167643e+04 9.995499172000e+04 6.930083004357e+04 6.192321656185e-01 3.807678343815e-01 0.000000000000e+00 0.000000000000e+00 
5.976000000000e+05 3.066855467155e+04 9.995499172000e+04 6.928643704845e+04 6.192269492428e-01 3.807730507572e-01 0.000000000000e+00 0.000000000000e+00 
6.012000000000e+05 3.068294805234e+04 9.995499172000e+04 6.927204366766e+04 6.192217365748e-01 3.807782634252e-01 0.000000000000e+00 0.000000000000e+00 
6.048000000000e+05 3.069734177842e+04 9.995499172000e+04 6.925764994158e+04 6.192165276247e-01 3.807834723753e-01 0.000000000000e+00 0.000000000000e+00 
6.084000000000e+05 3.071923333796e+04 9.995499172000e+04 6.923575838204e+04 6.192086126380e-01 3.807913873620e-01 0.000000000000e+00 0.000000000000e+00 
6.120000000000e+05 3.074214835620e+04 9.995499172000e+04 6.921284336380e+04 6.192003371091e-01 3.807996628909e-01 0.000000000000e+00 0.000000000000e+00 
6.156000000000e+05 3.076518751362e+04 9.995499172000e+04 6.918980420638e+04 6.191920265196e-01 3.808079734804e-01 0.000000000000e+00 0.000000000000e+00 
6.192000000000e+05 3.078824416140e+04 9.995499172000e+04 6.916674755860e+04 6.191837194107e-01 3.808162805893e-01 0.000000000000e+00 0.000000000000e+00 
6.228000000000e+05 3.079334233602e+04 9.995499172000e+04 6.916164938398e+04 6.191818839033e-01 3.808181160967e-01 0.000000000000e+00 0.000000000000e+00 
6.264000000000e+05 3.079593890333e+04 9.995499172000e+04 6.915905281667e+04 6.191809492388e-01 3.808190507612e-01 0.000000000000e+00 0.000000000000e+00 
6.300000000000e+05 3.079826098218e+04 9.995499172000e+04 6.915673073782e+04 6.191801134846e-01 3.808198865154e-01 0.000000000000e+00 0.000000000000e+00 
6.336000000000e+05 3.080055437979e+04 9.995499172000e+04 6.915443734021e+04 6.191792881504e-01 3.808207118496e-01 0.000000000000e+00 0.000000000000e+00 
6.372000000000e+05 3.080284481281e+04 9.995499172000e+04 6.915214690719e+04 6.191784639796e-01 3.808215360204e-01 0.000000000000e+00 0.000000000000e+00 
6.408000000000e+05 3.080513494191e+04 9.995499172000e+04 6.914985677809e+04 6.191776400144e-01 3.808223599856e-01 0.000000000000e+00 0.000000000000e+00 
6.444000000000e+05 3.081647725985e+04 9.995499172000e+04 6.913851446015e+04 6.191735605829e-01 3.808264394171e-01 0.000000000000e+00 0.000000000000e+00 
6.480000000000e+05 3.082907931425e+04 9.995499172000e+04 6.912591240575e+04 6.191690308361e-01 3.808309691639e-01 0.000000000000e+00 0.000000000000e+00 
6.516000000000e+05 3.084181953922e+04 9.995499172000e+04 6.911317218078e+04 6.191644543828e-01 3.808355456172e-01 0.000000000000e+00 0.000000000000e+00 
6.552000000000e+05 3.085457438986e+04 9.995499172000e+04 6.910041733014e+04 6.191598756521e-01 3.808401243479e-01 0.000000000000e+00 0.000000000000e+00 
6.588000000000e+05 3.241591613005e+04 9.995499172000e+04 6.753907558995e+04 6.186209338041e-01 3.813790661959e-01 0.000000000000e+00 0.000000000000e+00 
6.624000000000e+05 3.366293372260e+04 9.995499172000e+04 6.629205799740e+04 6.182189774973e-01 3.817810225027e-01 0.000000000000e+00 0.000000000000e+00 
6.660000000000e+05 3.423326733064e+04 9.995499172000e+04 6.572172438936e+04 6.180428547101e-01 3.819571452899e-01 0.000000000000e+00 0.000000000000e+00 
6.696000000000e+05 3.473268873918e+04 9.995499172000e+04 6.522230298082e+04 6.178923789845e-01 3.821076210155e-01 0.000000000000e+00 0.000000000000e+00 
6.732000000000e+05 3.500149495178e+04 9.995499172000e+04 6.495349676822e+04 6.178127891581e-01 3.821872108419e-01 0.000000000000e+00 0.000000000000e+00 
6.768000000000e+05 3.524905789397e+04 9.995499172000e+04 6.470593382603e+04 6.177403353286e-01 3.822596646714e-01 0.000000000000e+00 0.000000000000e+00 
6.804000000000e+05 3.549523593759e+04 9.995499172000e+04 6.445975578241e+04 6.176690765520e-01 3.823309234480e-01 0.000000000000e+00 0.000000000000e+00 
6.840000000000e+05 3.574136630155e+04 9.995499172000e+04 6.421362541845e+04 6.175986049015e-01 3.824013950985e-01 0.000000000000e+00 0.000000000000e+00 
6.876000000000e+05 3.582834597147e+04 9.995499172000e+04 6.412664574853e+04 6.175738833729e-01 3.824261166271e-01 0.000000000000e+00 0.000000000000e+00 
6.912000000000e+05 3.590273942376e+04 9.995499172000e+04 6.405225229624e+04 6.175528139445e-01 3.824471860555e-01 0.000000000000e+00 0.000000000000e+00 
6.948000000000e+05 3.597643181029e+04 9.995499172000e+04 6.397855990971e+04 6.175320107022e-01 3.824679892978e-01 0.000000000000e+00 0.000000000000e+00 
6.984000000000e+05 3.605008327132e+04 9.995499172000e+04 6.390490844868e+04 6.175112859157e-01 3.824887140843e-01 0.000000000000e+00 0.000000000000e+00 