 TITLE = "Time curves in points"
 VARIABLES = "TIME "  "PRESSURE1"  "PRESSURE2"  "PRESSURE_W"  "SATURATION1" SATURATION2  "n"  "Ki" 
 ZONE T="POINT=POINT0"
0.000000000000e+00 -3.634610000000e+04 1.000000000000e+05 1.363461000000e+05 7.510000000000e-01 2.490000000000e-01 0.000000000000e+00 0.000000000000e+00 
3.600000000000e+03 -3.634610000000e+04 1.000000000000e+05 1.363461000000e+05 7.510000000000e-01 2.490000000000e-01 0.000000000000e+00 0.000000000000e+00 
7.200000000000e+03 -3.511980000000e+04 1.000000000000e+05 1.351198000000e+05 7.510000000000e-01 2.490000000000e-01 0.000000000000e+00 0.000000000000e+00 
1.080000000000e+04 -3.312840000000e+04 1.000000000000e+05 1.331284000000e+05 7.510000000000e-01 2.490000000000e-01 0.000000000000e+00 0.000000000000e+00 
1.440000000000e+04 -3.295180000000e+04 1.000000000000e+05 1.329518000000e+05 7.510000000000e-01 2.490000000000e-01 0.000000000000e+00 0.000000000000e+00 
1.800000000000e+04 -3.277520000000e+04 1.000000000000e+05 1.327752000000e+05 7.510000000000e-01 2.490000000000e-01 0.000000000000e+00 0.000000000000e+00 
2.160000000000e+04 -3.279485000000e+04 1.000000000000e+05 1.327948500000e+05 7.510000000000e-01 2.490000000000e-01 0.000000000000e+00 0.000000000000e+00 
2.520000000000e+04 -3.281450000000e+04 1.000000000000e+05 1.328145000000e+05 7.510000000000e-01 2.490000000000e-01 0.000000000000e+00 0.000000000000e+00 
2.880000000000e+04 -3.288805000000e+04 1.000000000000e+05 1.328880500000e+05 7.510000000000e-01 2.490000000000e-01 0.000000000000e+00 0.000000000000e+00 
3.240000000000e+04 -3.296160000000e+04 1.000000000000e+05 1.329616000000e+05 7.510000000000e-01 2.490000000000e-01 0.000000000000e+00 0.000000000000e+00 
3.600000000000e+04 -3.291451333333e+04 1.000000000000e+05 1.329145133333e+05 7.510000000000e-01 2.490000000000e-01 0.000000000000e+00 0.000000000000e+00 
3.960000000000e+04 -3.286742666667e+04 1.000000000000e+05 1.328674266667e+05 7.510000000000e-01 2.490000000000e-01 0.000000000000e+00 0.000000000000e+00 
4.320000000000e+04 -3.282034000000e+04 1.000000000000e+05 1.328203400000e+05 7.510000000000e-01 2.490000000000e-01 0.000000000000e+00 0.000000000000e+00 
4.680000000000e+04 -3.277325333333e+04 1.000000000000e+05 1.327732533333e+05 7.510000000000e-01 2.490000000000e-01 0.000000000000e+00 0.000000000000e+00 
5.040000000000e+04 -3.272616666667e+04 1.000000000000e+05 1.327261666667e+05 7.510000000000e-01 2.490000000000e-01 0.000000000000e+00 0.000000000000e+00 
5.400000000000e+04 -3.267908000000e+04 1.000000000000e+05 1.326790800000e+05 7.510000000000e-01 2.490000000000e-01 0.000000000000e+00 0.000000000000e+00 
5.760000000000e+04 -3.263199333333e+04 1.000000000000e+05 1.326319933333e+05 7.510000000000e-01 2.490000000000e-01 0.000000000000e+00 0.000000000000e+00 
6.120000000000e+04 -3.258490666667e+04 1.000000000000e+05 1.325849066667e+05 7.510000000000e-01 2.490000000000e-01 0.000000000000e+00 0.000000000000e+00 
6.480000000000e+04 -3.253782000000e+04 1.000000000000e+05 1.325378200000e+05 7.510000000000e-01 2.490000000000e-01 0.000000000000e+00 0.000000000000e+00 
6.840000000000e+04 -3.249073333333e+04 1.000000000000e+05 1.324907333333e+05 7.510000000000e-01 2.490000000000e-01 0.000000000000e+00 0.000000000000e+00 
7.200000000000e+04 -3.244364666667e+04 1.000000000000e+05 1.324436466667e+05 7.510000000000e-01 2.490000000000e-01 0.000000000000e+00 0.000000000000e+00 
7.560000000000e+04 -3.239656000000e+04 1.000000000000e+05 1.323965600000e+05 7.510000000000e-01 2.490000000000e-01 0.000000000000e+00 0.000000000000e+00 
7.920000000000e+04 -3.234947333333e+04 1.000000000000e+05 1.323494733333e+05 7.510000000000e-01 2.490000000000e-01 0.000000000000e+00 0.000000000000e+00 
8.280000000000e+04 -3.230238666667e+04 1.000000000000e+05 1.323023866667e+05 7.510000000000e-01 2.490000000000e-01 0.000000000000e+00 0.000000000000e+00 
8.640000000000e+04 -3.225530000000e+04 1.000000000000e+05 1.322553000000e+05 7.510000000000e-01 2.490000000000e-01 0.000000000000e+00 0.000000000000e+00 
9.000000000000e+04 -3.192175000000e+04 1.000000000000e+05 1.319217500000e+05 7.510000000000e-01 2.490000000000e-01 0.000000000000e+00 0.000000000000e+00 
9.360000000000e+04 -3.158820000000e+04 1.000000000000e+05 1.315882000000e+05 7.510000000000e-01 2.490000000000e-01 0.000000000000e+00 0.000000000000e+00 
9.720000000000e+04 -3.159800000000e+04 1.000000000000e+05 1.315980000000e+05 7.510000000000e-01 2.490000000000e-01 0.000000000000e+00 0.000000000000e+00 
1.008000000000e+05 -3.160780000000e+04 1.000000000000e+05 1.316078000000e+05 7.510000000000e-01 2.490000000000e-01 0.000000000000e+00 0.000000000000e+00 
1.044000000000e+05 -3.109770000000e+04 1.000000000000e+05 1.310977000000e+05 7.510000000000e-01 2.490000000000e-01 0.000000000000e+00 0.000000000000e+00 
1.080000000000e+05 -3.058760000000e+04 1.000000000000e+05 1.305876000000e+05 7.510000000000e-01 2.490000000000e-01 0.000000000000e+00 0.000000000000e+00 
1.116000000000e+05 -2.890030000000e+04 1.000000000000e+05 1.289003000000e+05 7.510000000000e-01 2.490000000000e-01 0.000000000000e+00 0.000000000000e+00 
1.152000000000e+05 -2.795850000000e+04 1.000000000000e+05 1.279585000000e+05 7.510000000000e-01 2.490000000000e-01 0.000000000000e+00 0.000000000000e+00 
1.188000000000e+05 -2.750725000000e+04 1.000000000000e+05 1.275072500000e+05 7.510000000000e-01 2.490000000000e-01 0.000000000000e+00 0.000000000000e+00 
1.224000000000e+05 -2.705600000000e+04 1.000000000000e+05 1.270560000000e+05 7.510000000000e-01 2.490000000000e-01 0.000000000000e+00 0.000000000000e+00 
1.260000000000e+05 -2.701329411765e+04 1.000000000000e+05 1.270132941176e+05 7.510000000000e-01 2.490000000000e-01 0.000000000000e+00 0.000000000000e+00 
1.296000000000e+05 -2.697058823529e+04 1.000000000000e+05 1.269705882353e+05 7.510000000000e-01 2.490000000000e-01 0.000000000000e+00 0.000000000000e+00 
1.332000000000e+05 -2.692788235294e+04 1.000000000000e+05 1.269278823529e+05 7.510000000000e-01 2.490000000000e-01 0.000000000000e+00 0.000000000000e+00 
1.368000000000e+05 -2.688517647059e+04 1.000000000000e+05 1.268851764706e+05 7.510000000000e-01 2.490000000000e-01 0.000000000000e+00 0.000000000000e+00 
1.404000000000e+05 -2.684247058824e+04 1.000000000000e+05 1.268424705882e+05 7.510000000000e-01 2.490000000000e-01 0.000000000000e+00 0.000000000000e+00 
1.440000000000e+05 -2.679976470588e+04 1.000000000000e+05 1.267997647059e+05 7.510000000000e-01 2.490000000000e-01 0.000000000000e+00 0.000000000000e+00 
1.476000000000e+05 -2.675705882353e+04 1.000000000000e+05 1.267570588235e+05 7.510000000000e-01 2.490000000000e-01 0.000000000000e+00 0.000000000000e+00 
1.512000000000e+05 -2.671435294118e+04 1.000000000000e+05 1.267143529412e+05 7.510000000000e-01 2.490000000000e-01 0.000000000000e+00 0.000000000000e+00 
1.548000000000e+05 -2.667164705882e+04 1.000000000000e+05 1.266716470588e+05 7.510000000000e-01 2.490000000000e-01 0.000000000000e+00 0.000000000000e+00 
1.584000000000e+05 -2.662894117647e+04 1.000000000000e+05 1.266289411765e+05 7.510000000000e-01 2.490000000000e-01 0.000000000000e+00 0.000000000000e+00 
1.620000000000e+05 -2.658623529412e+04 1.000000000000e+05 1.265862352941e+05 7.510000000000e-01 2.490000000000e-01 0.000000000000e+00 0.000000000000e+00 
1.656000000000e+05 -2.654352941176e+04 1.000000000000e+05 1.265435294118e+05 7.510000000000e-01 2.490000000000e-01 0.000000000000e+00 0.000000000000e+00 
1.692000000000e+05 -2.650082352941e+04 1.000000000000e+05 1.265008235294e+05 7.510000000000e-01 2.490000000000e-01 0.000000000000e+00 0.000000000000e+00 
1.728000000000e+05 -2.645811764706e+04 1.000000000000e+05 1.264581176471e+05 7.510000000000e-01 2.490000000000e-01 0.000000000000e+00 0.000000000000e+00 
1.764000000000e+05 -2.641541176471e+04 1.000000000000e+05 1.264154117647e+05 7.510000000000e-01 2.490000000000e-01 0.000000000000e+00 0.000000000000e+00 
1.800000000000e+05 -2.637270588235e+04 1.000000000000e+05 1.263727058824e+05 7.510000000000e-01 2.490000000000e-01 0.000000000000e+00 0.000000000000e+00 
1.836000000000e+05 -2.633000000000e+04 1.000000000000e+05 1.263300000000e+05 7.510000000000e-01 2.490000000000e-01 0.000000000000e+00 0.000000000000e+00 
1.872000000000e+05 -2.629080000000e+04 1.000000000000e+05 1.262908000000e+05 7.510000000000e-01 2.490000000000e-01 0.000000000000e+00 0.000000000000e+00 
1.908000000000e+05 -2.625160000000e+04 1.000000000000e+05 1.262516000000e+05 7.510000000000e-01 2.490000000000e-01 0.000000000000e+00 0.000000000000e+00 
1.944000000000e+05 -2.621725000000e+04 1.000000000000e+05 1.262172500000e+05 7.510000000000e-01 2.490000000000e-01 0.000000000000e+00 0.000000000000e+00 
1.980000000000e+05 -2.618290000000e+04 1.000000000000e+05 1.261829000000e+05 7.510000000000e-01 2.490000000000e-01 0.000000000000e+00 0.000000000000e+00 
2.016000000000e+05 -2.612730000000e+04 1.000000000000e+05 1.261273000000e+05 7.510000000000e-01 2.490000000000e-01 0.000000000000e+00 0.000000000000e+00 
2.052000000000e+05 -2.607170000000e+04 1.000000000000e+05 1.260717000000e+05 7.510000000000e-01 2.490000000000e-01 0.000000000000e+00 0.000000000000e+00 
2.088000000000e+05 -2.601610000000e+04 1.000000000000e+05 1.260161000000e+05 7.510000000000e-01 2.490000000000e-01 0.000000000000e+00 0.000000000000e+00 
2.124000000000e+05 -2.600208571429e+04 1.000000000000e+05 1.260020857143e+05 7.510000000000e-01 2.490000000000e-01 0.000000000000e+00 0.000000000000e+00 
2.160000000000e+05 -2.598807142857e+04 1.000000000000e+05 1.259880714286e+05 7.510000000000e-01 2.490000000000e-01 0.000000000000e+00 0.000000000000e+00 
2.196000000000e+05 -2.597405714286e+04 1.000000000000e+05 1.259740571429e+05 7.510000000000e-01 2.490000000000e-01 0.000000000000e+00 0.000000000000e+00 
2.232000000000e+05 -2.596004285714e+04 1.000000000000e+05 1.259600428571e+05 7.510000000000e-01 2.490000000000e-01 0.000000000000e+00 0.000000000000e+00 
2.268000000000e+05 -2.594602857143e+04 1.000000000000e+05 1.259460285714e+05 7.510000000000e-01 2.490000000000e-01 0.000000000000e+00 0.000000000000e+00 
2.304000000000e+05 -2.593201428571e+04 1.000000000000e+05 1.259320142857e+05 7.510000000000e-01 2.490000000000e-01 0.000000000000e+00 0.000000000000e+00 
2.340000000000e+05 -2.591800000000e+04 1.000000000000e+05 1.259180000000e+05 7.510000000000e-01 2.490000000000e-01 0.000000000000e+00 0.000000000000e+00 
2.376000000000e+05 -2.590398571429e+04 1.000000000000e+05 1.259039857143e+05 7.510000000000e-01 2.490000000000e-01 0.000000000000e+00 0.000000000000e+00 
2.412000000000e+05 -2.588997142857e+04 1.000000000000e+05 1.258899714286e+05 7.510000000000e-01 2.490000000000e-01 0.000000000000e+00 0.000000000000e+00 
2.448000000000e+05 -2.587595714286e+04 1.000000000000e+05 1.258759571429e+05 7.510000000000e-01 2.490000000000e-01 0.000000000000e+00 0.000000000000e+00 
2.484000000000e+05 -2.586194285714e+04 1.000000000000e+05 1.258619428571e+05 7.510000000000e-01 2.490000000000e-01 0.000000000000e+00 0.000000000000e+00 
2.520000000000e+05 -2.584792857143e+04 1.000000000000e+05 1.258479285714e+05 7.510000000000e-01 2.490000000000e-01 0.000000000000e+00 0.000000000000e+00 
2.556000000000e+05 -2.583391428571e+04 1.000000000000e+05 1.258339142857e+05 7.510000000000e-01 2.490000000000e-01 0.000000000000e+00 0.000000000000e+00 
2.592000000000e+05 -2.581990000000e+04 1.000000000000e+05 1.258199000000e+05 7.510000000000e-01 2.490000000000e-01 0.000000000000e+00 0.000000000000e+00 
2.628000000000e+05 -2.354400000000e+04 1.000000000000e+05 1.235440000000e+05 7.510000000000e-01 2.490000000000e-01 0.000000000000e+00 0.000000000000e+00 
2.664000000000e+05 -2.302900000000e+04 1.000000000000e+05 1.230290000000e+05 7.510000000000e-01 2.490000000000e-01 0.000000000000e+00 0.000000000000e+00 
2.700000000000e+05 -2.251400000000e+04 1.000000000000e+05 1.225140000000e+05 7.510000000000e-01 2.490000000000e-01 0.000000000000e+00 0.000000000000e+00 
2.736000000000e+05 -2.201360000000e+04 1.000000000000e+05 1.220136000000e+05 7.510000000000e-01 2.490000000000e-01 0.000000000000e+00 0.000000000000e+00 
2.772000000000e+05 -2.179290000000e+04 1.000000000000e+05 1.217929000000e+05 7.510000000000e-01 2.490000000000e-01 0.000000000000e+00 0.000000000000e+00 
2.808000000000e+05 -2.157220000000e+04 1.000000000000e+05 1.215722000000e+05 7.510000000000e-01 2.490000000000e-01 0.000000000000e+00 0.000000000000e+00 
2.844000000000e+05 -2.119286666667e+04 1.000000000000e+05 1.211928666667e+05 7.510000000000e-01 2.490000000000e-01 0.000000000000e+00 0.000000000000e+00 
2.880000000000e+05 -2.081353333333e+04 1.000000000000e+05 1.208135333333e+05 7.510000000000e-01 2.490000000000e-01 0.000000000000e+00 0.000000000000e+00 
2.916000000000e+05 -2.043420000000e+04 1.000000000000e+05 1.204342000000e+05 7.510000000000e-01 2.490000000000e-01 0.000000000000e+00 0.000000000000e+00 
2.952000000000e+05 -2.034893076923e+04 1.000000000000e+05 1.203489307692e+05 7.510000000000e-01 2.490000000000e-01 0.000000000000e+00 0.000000000000e+00 
2.988000000000e+05 -2.026366153846e+04 1.000000000000e+05 1.202636615385e+05 7.510000000000e-01 2.490000000000e-01 0.000000000000e+00 0.000000000000e+00 
3.024000000000e+05 -2.017839230769e+04 1.000000000000e+05 1.201783923077e+05 7.510000000000e-01 2.490000000000e-01 0.000000000000e+00 0.000000000000e+00 
3.060000000000e+05 -2.009312307692e+04 1.000000000000e+05 1.200931230769e+05 7.510000000000e-01 2.490000000000e-01 0.000000000000e+00 0.000000000000e+00 
3.096000000000e+05 -2.000785384615e+04 1.000000000000e+05 1.200078538462e+05 7.510000000000e-01 2.490000000000e-01 0.000000000000e+00 0.000000000000e+00 
3.132000000000e+05 -1.992258461538e+04 1.000000000000e+05 1.199225846154e+05 7.510000000000e-01 2.490000000000e-01 0.000000000000e+00 0.000000000000e+00 
3.168000000000e+05 -1.983731538462e+04 1.000000000000e+05 1.198373153846e+05 7.510000000000e-01 2.490000000000e-01 0.000000000000e+00 0.000000000000e+00 
3.204000000000e+05 -1.975204615385e+04 1.000000000000e+05 1.197520461538e+05 7.510000000000e-01 2.490000000000e-01 0.000000000000e+00 0.000000000000e+00 
3.240000000000e+05 -1.966677692308e+04 1.000000000000e+05 1.196667769231e+05 7.510000000000e-01 2.490000000000e-01 0.000000000000e+00 0.000000000000e+00 
3.276000000000e+05 -1.958150769231e+04 1.000000000000e+05 1.195815076923e+05 7.510000000000e-01 2.490000000000e-01 0.000000000000e+00 0.000000000000e+00 
3.312000000000e+05 -1.949623846154e+04 1.000000000000e+05 1.194962384615e+05 7.510000000000e-01 2.490000000000e-01 0.000000000000e+00 0.000000000000e+00 
3.348000000000e+05 -1.941096923077e+04 1.000000000000e+05 1.194109692308e+05 7.510000000000e-01 2.490000000000e-01 0.000000000000e+00 0.000000000000e+00 
3.384000000000e+05 -1.932570000000e+04 1.000000000000e+05 1.193257000000e+05 7.510000000000e-01 2.490000000000e-01 0.000000000000e+00 0.000000000000e+00 
3.420000000000e+05 -1.910275454545e+04 1.000000000000e+05 1.191027545455e+05 7.510000000000e-01 2.490000000000e-01 0.000000000000e+00 0.000000000000e+00 
3.456000000000e+05 -1.887980909091e+04 1.000000000000e+05 1.188798090909e+05 7.510000000000e-01 2.490000000000e-01 0.000000000000e+00 0.000000000000e+00 
3.492000000000e+05 -1.865686363636e+04 1.000000000000e+05 1.186568636364e+05 7.510000000000e-01 2.490000000000e-01 0.000000000000e+00 0.000000000000e+00 
3.528000000000e+05 -1.843391818182e+04 1.000000000000e+05 1.184339181818e+05 7.510000000000e-01 2.490000000000e-01 0.000000000000e+00 0.000000000000e+00 
3.564000000000e+05 -1.821097272727e+04 1.000000000000e+05 1.182109727273e+05 7.510000000000e-01 2.490000000000e-01 0.000000000000e+00 0.000000000000e+00 
3.600000000000e+05 -1.799975000000e+04 1.000000000000e+05 1.179997500000e+05 7.510000000000e-01 2.490000000000e-01 0.000000000000e+00 0.000000000000e+00 
3.636000000000e+05 -1.780025000000e+04 1.000000000000e+05 1.178002500000e+05 7.510000000000e-01 2.490000000000e-01 0.000000000000e+00 0.000000000000e+00 
3.672000000000e+05 -1.760075000000e+04 1.000000000000e+05 1.176007500000e+05 7.510000000000e-01 2.490000000000e-01 0.000000000000e+00 0.000000000000e+00 
3.708000000000e+05 -1.739555000000e+04 1.000000000000e+05 1.173955500000e+05 7.510000000000e-01 2.490000000000e-01 0.000000000000e+00 0.000000000000e+00 
3.744000000000e+05 -1.718465000000e+04 1.000000000000e+05 1.171846500000e+05 7.510000000000e-01 2.490000000000e-01 0.000000000000e+00 0.000000000000e+00 
3.780000000000e+05 -1.697375000000e+04 1.000000000000e+05 1.169737500000e+05 7.510000000000e-01 2.490000000000e-01 0.000000000000e+00 0.000000000000e+00 
3.816000000000e+05 -1.676285000000e+04 1.000000000000e+05 1.167628500000e+05 7.510000000000e-01 2.490000000000e-01 0.000000000000e+00 0.000000000000e+00 
3.852000000000e+05 -1.657816153846e+04 1.000000000000e+05 1.165781615385e+05 7.510000000000e-01 2.490000000000e-01 0.000000000000e+00 0.000000000000e+00 
3.888000000000e+05 -1.641968461538e+04 1.000000000000e+05 1.164196846154e+05 7.510000000000e-01 2.490000000000e-01 0.000000000000e+00 0.000000000000e+00 
3.924000000000e+05 -1.626120769231e+04 1.000000000000e+05 1.162612076923e+05 7.510000000000e-01 2.490000000000e-01 0.000000000000e+00 0.000000000000e+00 
3.960000000000e+05 -1.610273076923e+04 1.000000000000e+05 1.161027307692e+05 7.510000000000e-01 2.490000000000e-01 0.000000000000e+00 0.000000000000e+00 
3.996000000000e+05 -1.594425384615e+04 1.000000000000e+05 1.159442538462e+05 7.510000000000e-01 2.490000000000e-01 0.000000000000e+00 0.000000000000e+00 
4.032000000000e+05 -1.578577692308e+04 1.000000000000e+05 1.157857769231e+05 7.510000000000e-01 2.490000000000e-01 0.000000000000e+00 0.000000000000e+00 
4.068000000000e+05 -1.562730000000e+04 1.000000000000e+05 1.156273000000e+05 7.510000000000e-01 2.490000000000e-01 0.000000000000e+00 0.000000000000e+00 
4.104000000000e+05 -1.557335000000e+04 1.000000000000e+05 1.155733500000e+05 7.510000000000e-01 2.490000000000e-01 0.000000000000e+00 0.000000000000e+00 
4.140000000000e+05 -1.551940000000e+04 1.000000000000e+05 1.155194000000e+05 7.510000000000e-01 2.490000000000e-01 0.000000000000e+00 0.000000000000e+00 
4.176000000000e+05 -1.546545000000e+04 1.000000000000e+05 1.154654500000e+05 7.510000000000e-01 2.490000000000e-01 0.000000000000e+00 0.000000000000e+00 
4.212000000000e+05 -1.541150000000e+04 1.000000000000e+05 1.154115000000e+05 7.510000000000e-01 2.490000000000e-01 0.000000000000e+00 0.000000000000e+00 
4.248000000000e+05 -1.535755000000e+04 1.000000000000e+05 1.153575500000e+05 7.510000000000e-01 2.490000000000e-01 0.000000000000e+00 0.000000000000e+00 
4.284000000000e+05 -1.530360000000e+04 1.000000000000e+05 1.153036000000e+05 7.510000000000e-01 2.490000000000e-01 0.000000000000e+00 0.000000000000e+00 
4.320000000000e+05 -1.529380000000e+04 1.000000000000e+05 1.152938000000e+05 7.510000000000e-01 2.490000000000e-01 0.000000000000e+00 0.000000000000e+00 
4.356000000000e+05 -1.528400000000e+04 1.000000000000e+05 1.152840000000e+05 7.510000000000e-01 2.490000000000e-01 0.000000000000e+00 0.000000000000e+00 
4.392000000000e+05 -1.527420000000e+04 1.000000000000e+05 1.152742000000e+05 7.510000000000e-01 2.490000000000e-01 0.000000000000e+00 0.000000000000e+00 
4.428000000000e+05 -1.526440000000e+04 1.000000000000e+05 1.152644000000e+05 7.510000000000e-01 2.490000000000e-01 0.000000000000e+00 0.000000000000e+00 
4.464000000000e+05 -9.363635000000e+03 1.000000000000e+05 1.093636350000e+05 7.510000000000e-01 2.490000000000e-01 0.000000000000e+00 0.000000000000e+00 
4.500000000000e+05 -7.958362500000e+03 1.000000000000e+05 1.079583625000e+05 7.510000000000e-01 2.490000000000e-01 0.000000000000e+00 0.000000000000e+00 
4.536000000000e+05 -7.649347500000e+03 1.000000000000e+05 1.076493475000e+05 7.510000000000e-01 2.490000000000e-01 0.000000000000e+00 0.000000000000e+00 
4.572000000000e+05 -7.328070000000e+03 1.000000000000e+05 1.073280700000e+05 7.510000000000e-01 2.490000000000e-01 0.000000000000e+00 0.000000000000e+00 
4.608000000000e+05 -6.994530000000e+03 1.000000000000e+05 1.069945300000e+05 7.510000000000e-01 2.490000000000e-01 0.000000000000e+00 0.000000000000e+00 
4.644000000000e+05 -6.660990000000e+03 1.000000000000e+05 1.066609900000e+05 7.510000000000e-01 2.490000000000e-01 0.000000000000e+00 0.000000000000e+00 
4.680000000000e+05 -6.327450000000e+03 1.000000000000e+05 1.063274500000e+05 7.510000000000e-01 2.490000000000e-01 0.000000000000e+00 0.000000000000e+00 
4.716000000000e+05 -6.304015000000e+03 1.000000000000e+05 1.063040150000e+05 7.510000000000e-01 2.490000000000e-01 0.000000000000e+00 0.000000000000e+00 
4.752000000000e+05 -6.280580000000e+03 1.000000000000e+05 1.062805800000e+05 7.510000000000e-01 2.490000000000e-01 0.000000000000e+00 0.000000000000e+00 
4.788000000000e+05 -6.257145000000e+03 1.000000000000e+05 1.062571450000e+05 7.510000000000e-01 2.490000000000e-01 0.000000000000e+00 0.000000000000e+00 
4.824000000000e+05 -6.233710000000e+03 1.000000000000e+05 1.062337100000e+05 7.510000000000e-01 2.490000000000e-01 0.000000000000e+00 0.000000000000e+00 
4.860000000000e+05 -6.210275000000e+03 1.000000000000e+05 1.062102750000e+05 7.510000000000e-01 2.490000000000e-01 0.000000000000e+00 0.000000000000e+00 
4.896000000000e+05 -6.186840000000e+03 1.000000000000e+05 1.061868400000e+05 7.510000000000e-01 2.490000000000e-01 0.000000000000e+00 0.000000000000e+00 
4.932000000000e+05 -6.163405000000e+03 1.000000000000e+05 1.061634050000e+05 7.510000000000e-01 2.490000000000e-01 0.000000000000e+00 0.000000000000e+00 
4.968000000000e+05 -6.139970000000e+03 1.000000000000e+05 1.061399700000e+05 7.510000000000e-01 2.490000000000e-01 0.000000000000e+00 0.000000000000e+00 
5.004000000000e+05 -6.116535000000e+03 1.000000000000e+05 1.061165350000e+05 7.510000000000e-01 2.490000000000e-01 0.000000000000e+00 0.000000000000e+00 
5.040000000000e+05 -6.093100000000e+03 1.000000000000e+05 1.060931000000e+05 7.510000000000e-01 2.490000000000e-01 0.000000000000e+00 0.000000000000e+00 
5.076000000000e+05 -6.069665000000e+03 1.000000000000e+05 1.060696650000e+05 7.510000000000e-01 2.490000000000e-01 0.000000000000e+00 0.000000000000e+00 
5.112000000000e+05 -6.046230000000e+03 1.000000000000e+05 1.060462300000e+05 7.510000000000e-01 2.490000000000e-01 0.000000000000e+00 0.000000000000e+00 
5.148000000000e+05 -6.022795000000e+03 1.000000000000e+05 1.060227950000e+05 7.510000000000e-01 2.490000000000e-01 0.000000000000e+00 0.000000000000e+00 
5.184000000000e+05 -5.999360000000e+03 1.000000000000e+05 1.059993600000e+05 7.510000000000e-01 2.490000000000e-01 0.000000000000e+00 0.000000000000e+00 
5.220000000000e+05 -5.975925000000e+03 1.000000000000e+05 1.059759250000e+05 7.510000000000e-01 2.490000000000e-01 0.000000000000e+00 0.000000000000e+00 
5.256000000000e+05 -5.952490000000e+03 1.000000000000e+05 1.059524900000e+05 7.510000000000e-01 2.490000000000e-01 0.000000000000e+00 0.000000000000e+00 
5.292000000000e+05 -5.929055000000e+03 1.000000000000e+05 1.059290550000e+05 7.510000000000e-01 2.490000000000e-01 0.000000000000e+00 0.000000000000e+00 
5.328000000000e+05 -5.905620000000e+03 1.000000000000e+05 1.059056200000e+05 7.510000000000e-01 2.490000000000e-01 0.000000000000e+00 0.000000000000e+00 
5.364000000000e+05 -5.878152000000e+03 1.000000000000e+05 1.058781520000e+05 7.510000000000e-01 2.490000000000e-01 0.000000000000e+00 0.000000000000e+00 
5.400000000000e+05 -5.850684000000e+03 1.000000000000e+05 1.058506840000e+05 7.510000000000e-01 2.490000000000e-01 0.000000000000e+00 0.000000000000e+00 
5.436000000000e+05 -5.823216000000e+03 1.000000000000e+05 1.058232160000e+05 7.510000000000e-01 2.490000000000e-01 0.000000000000e+00 0.000000000000e+00 
5.472000000000e+05 -5.795748000000e+03 1.000000000000e+05 1.057957480000e+05 7.510000000000e-01 2.490000000000e-01 0.000000000000e+00 0.000000000000e+00 
5.508000000000e+05 -5.768280000000e+03 1.000000000000e+05 1.057682800000e+05 7.510000000000e-01 2.490000000000e-01 0.000000000000e+00 0.000000000000e+00 
5.544000000000e+05 -5.753892000000e+03 1.000000000000e+05 1.057538920000e+05 7.510000000000e-01 2.490000000000e-01 0.000000000000e+00 0.000000000000e+00 
5.580000000000e+05 -5.739504000000e+03 1.000000000000e+05 1.057395040000e+05 7.510000000000e-01 2.490000000000e-01 0.000000000000e+00 0.000000000000e+00 
5.616000000000e+05 -5.725116000000e+03 1.000000000000e+05 1.057251160000e+05 7.510000000000e-01 2.490000000000e-01 0.000000000000e+00 0.000000000000e+00 
5.652000000000e+05 -5.710728000000e+03 1.000000000000e+05 1.057107280000e+05 7.510000000000e-01 2.490000000000e-01 0.000000000000e+00 0.000000000000e+00 
5.688000000000e+05 -5.696340000000e+03 1.000000000000e+05 1.056963400000e+05 7.510000000000e-01 2.490000000000e-01 0.000000000000e+00 0.000000000000e+00 
5.724000000000e+05 -5.681952000000e+03 1.000000000000e+05 1.056819520000e+05 7.510000000000e-01 2.490000000000e-01 0.000000000000e+00 0.000000000000e+00 
5.760000000000e+05 -5.667564000000e+03 1.000000000000e+05 1.056675640000e+05 7.510000000000e-01 2.490000000000e-01 0.000000000000e+00 0.000000000000e+00 
5.796000000000e+05 -5.653176000000e+03 1.000000000000e+05 1.056531760000e+05 7.510000000000e-01 2.490000000000e-01 0.000000000000e+00 0.000000000000e+00 
5.832000000000e+05 -5.638788000000e+03 1.000000000000e+05 1.056387880000e+05 7.510000000000e-01 2.490000000000e-01 0.000000000000e+00 0.000000000000e+00 
5.868000000000e+05 -5.624400000000e+03 1.000000000000e+05 1.056244000000e+05 7.510000000000e-01 2.490000000000e-01 0.000000000000e+00 0.000000000000e+00 
5.904000000000e+05 -5.610012000000e+03 1.000000000000e+05 1.056100120000e+05 7.510000000000e-01 2.490000000000e-01 0.000000000000e+00 0.000000000000e+00 
5.940000000000e+05 -5.595624000000e+03 1.000000000000e+05 1.055956240000e+05 7.510000000000e-01 2.490000000000e-01 0.000000000000e+00 0.000000000000e+00 
5.976000000000e+05 -5.581236000000e+03 1.000000000000e+05 1.055812360000e+05 7.510000000000e-01 2.490000000000e-01 0.000000000000e+00 0.000000000000e+00 
6.012000000000e+05 -5.566848000000e+03 1.000000000000e+05 1.055668480000e+05 7.510000000000e-01 2.490000000000e-01 0.000000000000e+00 0.000000000000e+00 
6.048000000000e+05 -5.552460000000e+03 1.000000000000e+05 1.055524600000e+05 7.510000000000e-01 2.490000000000e-01 0.000000000000e+00 0.000000000000e+00 
6.084000000000e+05 -5.529407500000e+03 1.000000000000e+05 1.055294075000e+05 7.510000000000e-01 2.490000000000e-01 0.000000000000e+00 0.000000000000e+00 
6.120000000000e+05 -5.506355000000e+03 1.000000000000e+05 1.055063550000e+05 7.510000000000e-01 2.490000000000e-01 0.000000000000e+00 0.000000000000e+00 
6.156000000000e+05 -5.483302500000e+03 1.000000000000e+05 1.054833025000e+05 7.510000000000e-01 2.490000000000e-01 0.000000000000e+00 0.000000000000e+00 
6.192000000000e+05 -5.460250000000e+03 1.000000000000e+05 1.054602500000e+05 7.510000000000e-01 2.490000000000e-01 0.000000000000e+00 0.000000000000e+00 
6.228000000000e+05 -5.457960000000e+03 1.000000000000e+05 1.054579600000e+05 7.510000000000e-01 2.490000000000e-01 0.000000000000e+00 0.000000000000e+00 
6.264000000000e+05 -5.455670000000e+03 1.000000000000e+05 1.054556700000e+05 7.510000000000e-01 2.490000000000e-01 0.000000000000e+00 0.000000000000e+00 
6.300000000000e+05 -5.453380000000e+03 1.000000000000e+05 1.054533800000e+05 7.510000000000e-01 2.490000000000e-01 0.000000000000e+00 0.000000000000e+00 
6.336000000000e+05 -5.451090000000e+03 1.000000000000e+05 1.054510900000e+05 7.510000000000e-01 2.490000000000e-01 0.000000000000e+00 0.000000000000e+00 
6.372000000000e+05 -5.448800000000e+03 1.000000000000e+05 1.054488000000e+05 7.510000000000e-01 2.490000000000e-01 0.000000000000e+00 0.000000000000e+00 
6.408000000000e+05 -5.446510000000e+03 1.000000000000e+05 1.054465100000e+05 7.510000000000e-01 2.490000000000e-01 0.000000000000e+00 0.000000000000e+00 
6.444000000000e+05 -5.433757500000e+03 1.000000000000e+05 1.054337575000e+05 7.510000000000e-01 2.490000000000e-01 0.000000000000e+00 0.000000000000e+00 
6.480000000000e+05 -5.421005000000e+03 1.000000000000e+05 1.054210050000e+05 7.510000000000e-01 2.490000000000e-01 0.000000000000e+00 0.000000000000e+00 
6.516000000000e+05 -5.408252500000e+03 1.000000000000e+05 1.054082525000e+05 7.510000000000e-01 2.490000000000e-01 0.000000000000e+00 0.000000000000e+00 
6.552000000000e+05 -5.395500000000e+03 1.000000000000e+05 1.053955000000e+05 7.510000000000e-01 2.490000000000e-01 0.000000000000e+00 0.000000000000e+00 
6.588000000000e+05 -3.629700000000e+03 1.000000000000e+05 1.036297000000e+05 7.510000000000e-01 2.490000000000e-01 0.000000000000e+00 0.000000000000e+00 
6.624000000000e+05 -2.452500000000e+03 1.000000000000e+05 1.024525000000e+05 7.510000000000e-01 2.490000000000e-01 0.000000000000e+00 0.000000000000e+00 
6.660000000000e+05 -1.962000000000e+03 1.000000000000e+05 1.019620000000e+05 7.510000000000e-01 2.490000000000e-01 0.000000000000e+00 0.000000000000e+00 
6.696000000000e+05 -1.471500000000e+03 1.000000000000e+05 1.014715000000e+05 7.510000000000e-01 2.490000000000e-01 0.000000000000e+00 0.000000000000e+00 
6.732000000000e+05 -1.226250000000e+03 1.000000000000e+05 1.012262500000e+05 7.510000000000e-01 2.490000000000e-01 0.000000000000e+00 0.000000000000e+00 
6.768000000000e+05 -9.810000000000e+02 1.000000000000e+05 1.009810000000e+05 7.510000000000e-01 2.490000000000e-01 0.000000000000e+00 0.000000000000e+00 
6.804000000000e+05 -7.357500000000e+02 1.000000000000e+05 1.007357500000e+05 7.510000000000e-01 2.490000000000e-01 0.000000000000e+00 0.000000000000e+00 
6.840000000000e+05 -4.905000000000e+02 1.000000000000e+05 1.004905000000e+05 7.510000000000e-01 2.490000000000e-01 0.000000000000e+00 0.000000000000e+00 
6.876000000000e+05 -4.169250000000e+02 1.000000000000e+05 1.004169250000e+05 7.510000000000e-01 2.490000000000e-01 0.000000000000e+00 0.000000000000e+00 
6.912000000000e+05 -3.433500000000e+02 1.000000000000e+05 1.003433500000e+05 7.510000000000e-01 2.490000000000e-01 0.000000000000e+00 0.000000000000e+00 