 TITLE = "Time curves in points"
 VARIABLES = "TIME "  "VELOCITY_Y1" 
 ZONE T="POINT=POINT1"
0.000000000000e+00 0.000000000000e+00 
3.600000000000e+03 7.503059623853e-12 
7.200000000000e+03 -7.260385191777e-07 
1.080000000000e+04 -2.325704856126e-06 
1.440000000000e+04 -1.144377182150e-06 
1.800000000000e+04 -6.237629472754e-07 
2.160000000000e+04 -2.355103369776e-07 
2.520000000000e+04 -7.442167399850e-08 
2.880000000000e+04 5.812311542187e-08 
3.240000000000e+04 1.099359399842e-07 
3.600000000000e+04 -1.102859875354e-08 
3.960000000000e+04 -6.105580959103e-08 
4.320000000000e+04 -8.276686410287e-08 
4.680000000000e+04 -9.261260510223e-08 
5.040000000000e+04 -9.714808469872e-08 
5.400000000000e+04 -9.909732475810e-08 
5.760000000000e+04 -9.965065982126e-08 
6.120000000000e+04 -9.936413950187e-08 
6.480000000000e+04 -9.852255281228e-08 
6.840000000000e+04 -9.728962538464e-08 
7.200000000000e+04 -9.577164967645e-08 
7.560000000000e+04 -9.404475529346e-08 
7.920000000000e+04 -9.216718940831e-08 
8.280000000000e+04 -9.018509012116e-08 
8.640000000000e+04 -8.813550770150e-08 
9.000000000000e+04 -4.679870881839e-07 
9.360000000000e+04 -6.177648823994e-07 
9.720000000000e+04 -2.410447876777e-07 
1.008000000000e+05 -8.576175493921e-08 
1.044000000000e+05 -7.209978150028e-07 
1.080000000000e+05 -9.343740146118e-07 
1.116000000000e+05 -2.814475267145e-06 
1.152000000000e+05 -2.459018808601e-06 
1.188000000000e+05 -1.616894752407e-06 
1.224000000000e+05 -1.275849250531e-06 
1.260000000000e+05 -5.583364110972e-07 
1.296000000000e+05 -2.859857670993e-07 
1.332000000000e+05 -1.754207812080e-07 
1.368000000000e+05 -1.302382487993e-07 
1.404000000000e+05 -1.114819202063e-07 
1.440000000000e+05 -1.033308851972e-07 
1.476000000000e+05 -9.936985443978e-08 
1.512000000000e+05 -9.701416504070e-08 
1.548000000000e+05 -9.523638365691e-08 
1.584000000000e+05 -9.363897440124e-08 
1.620000000000e+05 -9.207676476035e-08 
1.656000000000e+05 -9.050384305718e-08 
1.692000000000e+05 -8.891211558067e-08 
1.728000000000e+05 -8.730660857134e-08 
1.764000000000e+05 -8.983802805189e-08 
1.800000000000e+05 -9.276159611864e-08 
1.836000000000e+05 -9.493686047915e-08 
1.872000000000e+05 -9.147821721721e-08 
1.908000000000e+05 -9.034691438645e-08 
1.944000000000e+05 -8.317148236127e-08 
1.980000000000e+05 -8.024515009885e-08 
2.016000000000e+05 -1.082039323885e-07 
2.052000000000e+05 -1.183082002062e-07 
2.088000000000e+05 -1.211416850322e-07 
2.124000000000e+05 -6.515889812261e-08 
2.160000000000e+05 -4.366729441930e-08 
2.196000000000e+05 -3.538536478832e-08 
2.232000000000e+05 -3.214852137125e-08 
2.268000000000e+05 -3.083059270302e-08 
2.304000000000e+05 -3.023925908242e-08 
2.340000000000e+05 -2.992136906433e-08 
2.376000000000e+05 -2.970532339864e-08 
2.412000000000e+05 -2.952642588078e-08 
2.448000000000e+05 -2.936044131705e-08 
2.484000000000e+05 -2.919839626478e-08 
2.520000000000e+05 -2.903705157606e-08 
2.556000000000e+05 -2.887531110851e-08 
2.592000000000e+05 -2.871287325796e-08 
2.628000000000e+05 -3.033762617509e-06 
2.664000000000e+05 -1.829228656522e-06 
2.700000000000e+05 -1.322635518118e-06 
2.736000000000e+05 -1.135754251269e-06 
2.772000000000e+05 -7.180372996505e-07 
2.808000000000e+05 -5.599423852556e-07 
2.844000000000e+05 -7.178893374778e-07 
2.880000000000e+05 -7.839990786699e-07 
2.916000000000e+05 -7.929409516686e-07 
2.952000000000e+05 -3.843683816868e-07 
2.988000000000e+05 -2.469357388221e-07 
3.024000000000e+05 -1.989926038825e-07 
3.060000000000e+05 -1.801069067232e-07 
3.096000000000e+05 -1.703932204194e-07 
3.132000000000e+05 -1.634889630757e-07 
3.168000000000e+05 -1.720000417624e-07 
3.204000000000e+05 -1.778266421077e-07 
3.240000000000e+05 -1.801149360493e-07 
3.276000000000e+05 -1.796009303503e-07 
3.312000000000e+05 -1.770771455306e-07 
3.348000000000e+05 -1.731967689786e-07 
3.384000000000e+05 -1.684627264143e-07 
3.420000000000e+05 -3.624611787488e-07 
3.456000000000e+05 -4.371461258263e-07 
3.492000000000e+05 -4.451667384381e-07 
3.528000000000e+05 -4.220106157724e-07 
3.564000000000e+05 -4.548709294163e-07 
3.600000000000e+05 -4.376483627089e-07 
3.636000000000e+05 -3.958209492672e-07 
3.672000000000e+05 -4.043827273510e-07 
3.708000000000e+05 -4.203016297589e-07 
3.744000000000e+05 -4.172488878175e-07 
3.780000000000e+05 -3.928641247427e-07 
3.816000000000e+05 -4.274341622108e-07 
3.852000000000e+05 -3.898903605385e-07 
3.888000000000e+05 -3.280927491155e-07 
3.924000000000e+05 -3.014005372517e-07 
3.960000000000e+05 -3.214980656012e-07 
3.996000000000e+05 -3.254305905536e-07 
4.032000000000e+05 -3.172250335674e-07 
4.068000000000e+05 -3.022175022743e-07 
4.104000000000e+05 -1.485368184692e-07 
4.140000000000e+05 -1.179351741099e-07 
4.176000000000e+05 -1.120899401672e-07 
4.212000000000e+05 -1.115945617106e-07 
4.248000000000e+05 -1.118083933099e-07 
4.284000000000e+05 -1.116947923587e-07 
4.320000000000e+05 -4.433637510952e-08 
4.356000000000e+05 -2.657615675890e-08 
4.392000000000e+05 -2.185701265133e-08 
4.428000000000e+05 -2.058689210264e-08 
4.464000000000e+05 -8.279932424614e-06 
4.500000000000e+05 -3.194256409542e-06 
4.536000000000e+05 -8.188336155484e-07 
4.572000000000e+05 -5.531427988669e-07 
4.608000000000e+05 -4.957743563486e-07 
4.644000000000e+05 -5.243510607188e-07 
4.680000000000e+05 -5.004423112908e-07 
4.716000000000e+05 -8.776688862692e-08 
4.752000000000e+05 -4.031373311633e-08 
4.788000000000e+05 -3.446339765730e-08 
4.824000000000e+05 -3.352721185157e-08 
4.860000000000e+05 -3.317177854944e-08 
4.896000000000e+05 -3.288376781757e-08 
4.932000000000e+05 -3.260305209551e-08 
4.968000000000e+05 -3.426203664791e-08 
5.004000000000e+05 -3.517668770127e-08 
5.040000000000e+05 -3.578909655435e-08 
5.076000000000e+05 -3.623491672599e-08 
5.112000000000e+05 -3.656738149535e-08 
5.148000000000e+05 -3.681314177778e-08 
5.184000000000e+05 -3.698824473158e-08 
5.220000000000e+05 -3.710364908479e-08 
5.256000000000e+05 -3.716751171908e-08 
5.292000000000e+05 -3.718631535735e-08 
5.328000000000e+05 -3.716532985581e-08 
5.364000000000e+05 -4.275917980554e-08 
5.400000000000e+05 -4.327057709685e-08 
5.436000000000e+05 -4.317356661960e-08 
5.472000000000e+05 -4.297274020833e-08 
5.508000000000e+05 -4.273159685345e-08 
5.544000000000e+05 -2.455036888631e-08 
5.580000000000e+05 -2.247710028131e-08 
5.616000000000e+05 -2.216758642113e-08 
5.652000000000e+05 -2.205784723063e-08 
5.688000000000e+05 -2.196872933235e-08 
5.724000000000e+05 -2.187972296095e-08 
5.760000000000e+05 -2.178865613051e-08 
5.796000000000e+05 -2.169546610975e-08 
5.832000000000e+05 -2.160032263093e-08 
5.868000000000e+05 -2.150341194722e-08 
5.904000000000e+05 -2.140491212153e-08 
5.940000000000e+05 -2.130499147444e-08 
5.976000000000e+05 -2.120380790140e-08 
6.012000000000e+05 -2.110150997195e-08 
6.048000000000e+05 -2.099823715331e-08 
6.084000000000e+05 -3.206739294942e-08 
6.120000000000e+05 -3.298174748164e-08 
6.156000000000e+05 -3.283827141293e-08 
6.192000000000e+05 -3.257846471155e-08 
6.228000000000e+05 -6.250537348842e-09 
6.264000000000e+05 -3.551143406822e-09 
6.300000000000e+05 -3.258546831282e-09 
6.336000000000e+05 -3.224368321910e-09 
6.372000000000e+05 -3.218238490438e-09 
6.408000000000e+05 -3.215158782629e-09 
6.444000000000e+05 -1.666560659517e-08 
6.480000000000e+05 -1.851842342676e-08 
6.516000000000e+05 -1.899281087664e-08 
6.552000000000e+05 -1.925369622885e-08 
6.588000000000e+05 -2.615353307598e-06 
6.624000000000e+05 -1.873297392413e-06 
6.660000000000e+05 -8.122863472063e-07 
6.696000000000e+05 -7.887630708532e-07 
6.732000000000e+05 -3.862126359713e-07 
6.768000000000e+05 -3.885303816984e-07 
6.804000000000e+05 -3.897210674557e-07 
6.840000000000e+05 -3.640946317225e-07 
6.876000000000e+05 -1.160567477828e-07 
6.912000000000e+05 -1.067848062865e-07 
6.948000000000e+05 -1.079012903638e-07 
6.984000000000e+05 -1.075869965813e-07 
7.020000000000e+05 -4.976284520434e-08 
7.056000000000e+05 -4.744897883685e-08 
7.092000000000e+05 -4.703926250870e-08 
7.128000000000e+05 -4.668842372285e-08 
7.164000000000e+05 -4.630935896987e-08 
7.200000000000e+05 -4.590284585155e-08 
